  MPI-parallelism will be employed.
------------------------------------------------------------
          Invoking FHI-aims ...
          Version 081213
          Compiled on 2013/08/29 at 17:41:06 on host generoso.

          When using FHI-aims, please cite the following reference:

          Volker Blum, Ralf Gehrke, Felix Hanke, Paula Havu,
          Ville Havu, Xinguo Ren, Karsten Reuter, and Matthias Scheffler,
          'Ab Initio Molecular Simulations with Numeric Atom-Centered Orbitals: FHI-aims',
          Computer Physics Communications 180, 2175-2196 (2009)

          For any questions about FHI-aims, please visit the aimsclub website
          with its forums and wiki. Contributions to both the forums and the
          wiki are warmly encouraged - they are for you, and everyone is welcome there.

------------------------------------------------------------

  Date     :  20150727, Time     :  115959.812
  Time zero on CPU 1             :   0.469910000000000E-01  s.
  Internal wall clock time zero  :           207230399.812  s.

  Using        8 parallel tasks.
  Task        0 on host gen59 reporting.
  Task        1 on host gen59 reporting.
  Task        2 on host gen59 reporting.
  Task        3 on host gen59 reporting.
  Task        4 on host gen59 reporting.
  Task        5 on host gen59 reporting.
  Task        6 on host gen59 reporting.
  Task        7 on host gen59 reporting.

  Performing system and environment tests:
  | Environment variable OMP_NUM_THREADS correctly set to 1.
  | Checking for scalapack...
  | No scalapack compiled in.

  Obtaining array dimensions for all initial allocations:
  
  -----------------------------------------------------------------------
  Parsing control.in (first pass over file, find array dimensions only).
  The contents of control.in will be repeated verbatim below
  unless switched off by setting 'verbatim_writeout .false.' .
  in the first line of control.in .
  -----------------------------------------------------------------------
  
  #########################################################################################
  #
  #  Volker Blum, FHI 2008 : Test run input file control.in
  #
  #########################################################################################
  #
  #  Physical model
  #
    xc                 rpbe
    spin               none
    relativistic       atomic_zora scalar
    charge             0.
   vdw_correction_hirshfeld
  #
  #  SCF convergence
  #
    occupation_type    gaussian 0.01
    mixer              pulay
      n_max_pulay        10
      charge_mix_param   0.1
    sc_accuracy_rho    5E-5
    sc_accuracy_eev    5E-3
    sc_accuracy_etot   5E-6
    sc_iter_limit      3000
  #
  #  Eigenvalue solver
  #
    KS_method          lapack
      empty_states       8
      basis_threshold    0.e-5
  #
  #  Efficiency
  #
  #   all previous settings are now default, except stratmann still
  #   undecided. Continue to handle stratmann with care, if at all.
  #
  #  partition_type stratmann
    partition_type rho_r2
  #  hartree_partition_type stratmann
  #
  #  Oprions for large clusters (100's of atoms: memory saving / better scaling)
  #
  # for periodic systems:
  #
    density_update_method orbital
    packed_matrix_format none
  #  k_grid 6 6 6
  #  output k_eigenvalue 1
  #  distributed_spline_storage .true.
  #
  #  Relaxation
  #
  #  relax_geometry   bfgs 5.e-3
    sc_accuracy_forces 5.E-4
    final_forces_cleaned .true.
  #
  #  Output options
  #
  #  output mulliken
    output Hirshfeld
  #  output dipole
  
  #harmonic_length_scale 0.001
  
  ################################################################################
  #
  #  FHI-aims code project
  #  VB, Fritz-Haber Institut, 2007
  #
  #  Suggested "safe" defaults for H atom (to be pasted into control.in file)
  #  Basis constructed for a non-relativistic H2 molecule using the
  #  PW-LDA functional.
  #
  ################################################################################
    species        H
  #     global species definitions
      nucleus             1
      cut_pot             4.0  2.0  1.0
      cut_free_atom       finite 8.0
      logarithmic         0.00010000 100.00  1.0123
      basis_dep_cutoff    1d-4  # 1d-4 is safe default - please check 5d-4 if you wish!
      radial_base         24 7.0
      radial_multiplier   2
      angular_grids       specified
        division   0.2783  110
        division   0.3822  194
        division   0.5626  302
  #      division   0.5922  434
  #      division   0.6227  590
  #      division   0.7206  770
        outer_grid  302
      l_hartree           4
  ################################################################################
  #
  #  Definition of "minimal" basis
  #
  ################################################################################
  #     valence basis states
      valence      1  s   1.
  #     ion occupancy
      ion_occ      1  s   0.5
  ################################################################################
  #
  #  Suggested additional basis functions. For production calculations,
  #  uncomment them one after another (the most important basis functions are
  #  listed first).
  #
  ################################################################################
  #  "First tier" - improvements: -1014.90 meV to -62.69 meV
       hydro 2 s 2.1
       hydro 2 p 3.5
  #  "Second tier" - improvements: -12.89 meV to -1.83 meV
       hydro 1 s 0.85
       hydro 2 p 3.7
       hydro 2 s 1.2
       hydro 3 d 7
  #  "Third tier" - improvements: -0.25 meV to -0.12 meV
  #     hydro 4 f 11.2
  #     hydro 3 p 4.8
  #     hydro 4 d 9
  #     hydro 3 s 3.2
  
  ################################################################################
  #
  #  FHI-aims code project
  #  VB, Fritz-Haber Institut, 2007
  #
  #  Suggested "safe" defaults for O atom (to be pasted into control.in file)
  #  All values have been tested for a non-relativistic, non-spinpolarized O2
  #  molecule using the PW-LDA functional. Validity for PBE is expected.
  #
  #  Constructed for dimers: 1.0 A, 1.208 A, 1.5 A, 2.0 A, 3.0 A
  #
  ################################################################################
    species        O
  #     global species definitions
      nucleus             8
      mass                15.9994
      l_hartree           4
      cut_pot             4.0  2.0  1.0
      cut_free_atom       finite 8.0
      basis_dep_cutoff    1d-4  # 1d-4 is safe default - please check 5d-4 if you wish!
      logarithmic         0.00010000 100.00  1.0123
      radial_base         36 7.0
      radial_multiplier   2
       angular_grids specified
        division   0.4087  110
        division   0.5181  194
        division   0.6184  302
  #      division   0.7315  434
  #      division   0.7934  590
  #      division   0.9656  770
  #      division   1.4041  974
  #      outer_grid 974
        outer_grid 302
  ################################################################################
  #
  #  Definition of "minimal" basis
  #
  ################################################################################
  #     valence basis states
      valence      2  s   2.
      valence      2  p   4.
  #     ion occupancy
      ion_occ      2  s   1.
      ion_occ      2  p   3.
  ################################################################################
  #
  #  Suggested additional basis functions. For production calculations,
  #  uncomment them one after another (the most important basis functions are
  #  listed first).
  #
  ################################################################################
  #  "First tier" - improvements: -699.05 meV to -159.38 meV
       hydro 2 p 1.8
       hydro 3 d 7.6
       hydro 3 s 6.4
  #  "Second tier" - improvements: -49.91 meV to -5.39 meV
       hydro 4 f 11.6
       hydro 3 p 6.2
       hydro 3 d 5.6
       hydro 5 g 17.6
       hydro 1 s 0.75
  #  "Third tier" - improvements: -2.83 meV to -0.50 meV
  #     ionic 2 p auto
  #     hydro 4 f 10.8
  #     hydro 4 d 4.7
  #     hydro 2 s 6.8
  #  "Fourth tier" - improvements: -0.40 meV to -0.12 meV
  #     hydro 3 p 5
  #     hydro 3 s 3.3
  #     hydro 5 g 15.6
  #     hydro 4 f 17.6
  #     hydro 4 d 14
  # Further basis functions - -0.08 meV and below
  #     hydro 3 s 2.1
  #     hydro 4 d 11.6
  #     hydro 3 p 16
  #     hydro 2 s 17.2
  
  
  -----------------------------------------------------------------------
  Completed first pass over input file control.in .
  -----------------------------------------------------------------------
  
  
  -----------------------------------------------------------------------
  Parsing geometry.in (first pass over file, find array dimensions only).
  The contents of geometry.in will be repeated verbatim below
  unless switched off by setting 'verbatim_writeout .false.' .
  in the first line of geometry.in .
  -----------------------------------------------------------------------
  
  atom      -4.053030000      0.065001000     -1.525160000  O
  atom      -4.566710000      0.974813000     -1.912820000  H
  atom      -3.067820000      0.330172000     -1.477310000  H
  atom      -4.370360000     -0.049164000     -0.572274000  H
  atom      -4.581760000     -0.256435000      0.939478000  O
  atom      -4.349860000      0.471090000      1.504340000  H
  atom      -5.393870000     -0.726611000      1.228070000  H
  atom      -5.293160000      2.192130000     -2.328800000  O
  atom      -4.829300000      2.988660000     -1.973850000  H
  atom      -5.428570000      2.328640000     -3.235170000  H
  atom      -3.818880000      2.024990000      2.187990000  O
  atom      -3.690880000      1.961360000      3.202150000  H
  atom      -4.546490000      2.751300000      2.045370000  H
  atom      -1.975360000      2.858040000      0.453140000  O
  atom      -1.223550000      3.375850000      0.786238000  H
  atom      -2.537520000      2.567960000      1.156120000  H
  atom      -4.066610000      4.258280000     -0.900064000  O
  atom      -3.224110000      3.876870000     -0.569443000  H
  atom      -3.737450000      5.116530000     -1.322720000  H
  
  -----------------------------------------------------------------------
  Completed first pass over input file geometry.in .
  -----------------------------------------------------------------------
  
 
  Basic array size parameters: 
  | Number of species                 :        2
  | Number of atoms                   :       19
  | Max. basis fn. angular momentum   :        4
  | Max. atomic/ionic basis occupied n:        2
  | Max. number of basis fn. types    :        2
  | Max. radial fns per species/type  :        8
  | Max. logarithmic grid size        :     1301
  | Max. radial integration grid size :       73
  | Max. angular integration grid size:      302
  | Max. angular grid division number :        8
  | Radial grid for Hartree potential :     1301
  | Number of spin channels           :        1

------------------------------------------------------------
          Reading file control.in.
------------------------------------------------------------
  XC: Using RPBE gradient-corrected functionals.
  Spin treatment: No spin polarisation.
  Scalar relativistic treatment of kinetic energy: on-site free-atom approximation to ZORA.
  Charge =   0.000000E+00: Neutral system requested explicitly.
  Using non-empirical van der Waals correction (Hirshfeld partitioning):
  Occupation type: Gaussian broadening, width =   0.100000E-01 eV.
  Using pulay charge density mixing.
  Pulay mixing - number of memorized iterations:   10
  Charge density mixing - mixing parameter:     0.1000
  Convergence accuracy of self-consistent charge density: 0.5000E-04
  Convergence accuracy of sum of eigenvalues: 0.5000E-02
  Convergence accuracy of total energy: 0.5000E-05
  Maximum number of s.-c. iterations  :  3000
  Kohn-Sham eigenvalues and eigenfunctions calculated by lapack diagonalisation (D&C).
  Number of empty states per atom:        8
  Threshold for basis singularities: 0.0000E+00
  Partition function in integrals calculations: rho / r^2
 Using packed matrix format           0
  Convergence accuracy of forces: 0.5000E-03
  Cleaning forces before final output.
  Hirshfeld charge analysis will be performed.
 
  Reading configuration options for species H                   .
  | Found nuclear charge :   1.0000
  | Found cutoff potl. onset [A], width [A], scale factor :    4.00000    2.00000    1.00000
  | Found cutoff specification for free atom: Cutoff potential begins at    8.00000 A.
  | Found logarithmic grid data [bohr] : 0.1000E-03 0.1000E+03 0.1012E+01
  | Threshold for basis-dependent cutoff potential is   0.100000E-03
  | Found data for basic radial integration grid :    24 points, outermost radius =    7.000 A
  | Found multiplier for basic radial grid :   2
  | Found angular grid specification: user-specified.
  | Specified grid contains     4 separate shells.
  | Check grid settings after all constraints further below.
  | Found l_max for Hartree potential  :   4
  | Found free-atom valence shell :  1 s   1.000
  | No ionic wave fns used. Skipping ion_occ.
  | Found hydrogenic basis function :  2 s   2.100
  | Found hydrogenic basis function :  2 p   3.500
  | Found hydrogenic basis function :  1 s   0.850
  | Found hydrogenic basis function :  2 p   3.700
  | Found hydrogenic basis function :  2 s   1.200
  | Found hydrogenic basis function :  3 d   7.000
  Species H                   : Missing cutoff potential type.
  Defaulting to exp(1/x)/(1-x)^2 type cutoff potential.
  Species H : On-site basis accuracy parameter (for Gram-Schmidt orthonormalisation) not specified.
  Using default value basis_acc =  0.1000000E-03.
  Species H                   : Using default innermost maximum threshold i_radial=  2 for radial functions.
  Species H                   : Basic radial grid will be enhanced according to radial_multiplier =   2, to contain    49 grid points.
 
  Reading configuration options for species O                   .
  | Found nuclear charge :   8.0000
  | Found atomic mass :    15.9994000000000      amu
  | Found l_max for Hartree potential  :   4
  | Found cutoff potl. onset [A], width [A], scale factor :    4.00000    2.00000    1.00000
  | Found cutoff specification for free atom: Cutoff potential begins at    8.00000 A.
  | Threshold for basis-dependent cutoff potential is   0.100000E-03
  | Found logarithmic grid data [bohr] : 0.1000E-03 0.1000E+03 0.1012E+01
  | Found data for basic radial integration grid :    36 points, outermost radius =    7.000 A
  | Found multiplier for basic radial grid :   2
  | Found angular grid specification: user-specified.
  | Specified grid contains     4 separate shells.
  | Check grid settings after all constraints further below.
  | Found free-atom valence shell :  2 s   2.000
  | Found free-atom valence shell :  2 p   4.000
  | No ionic wave fns used. Skipping ion_occ.
  | No ionic wave fns used. Skipping ion_occ.
  | Found hydrogenic basis function :  2 p   1.800
  | Found hydrogenic basis function :  3 d   7.600
  | Found hydrogenic basis function :  3 s   6.400
  | Found hydrogenic basis function :  4 f  11.600
  | Found hydrogenic basis function :  3 p   6.200
  | Found hydrogenic basis function :  3 d   5.600
  | Found hydrogenic basis function :  5 g  17.600
  | Found hydrogenic basis function :  1 s   0.750
  Species O                   : Missing cutoff potential type.
  Defaulting to exp(1/x)/(1-x)^2 type cutoff potential.
  Species O : On-site basis accuracy parameter (for Gram-Schmidt orthonormalisation) not specified.
  Using default value basis_acc =  0.1000000E-03.
  Species O                   : Using default innermost maximum threshold i_radial=  2 for radial functions.
  Species O                   : Basic radial grid will be enhanced according to radial_multiplier =   2, to contain    73 grid points.
 
  Finished reading input file 'control.in'. Consistency checks are next.
 
  Target number of points in a grid batch is not set. Defaulting to  100
  Method for grid partitioning is not set. Defaulting to parallel hash+maxmin partitioning.
  Batch size limit is not set. Defaulting to    200
  By default, will store active basis functions for each batch.
  If in need of memory, prune_basis_once .false. can be used to disable this option.
  communication_type for Hartree potential was not specified.
  Defaulting to calc_hartree .
  Pulay mixer: Number of initial linear mixing iterations not set.
  Defaulting to    0 iterations.
  Work space size for distributed Hartree potential not set.
  Defaulting to   0.200000E+03 MB.
  Algorithm-dependent basis array size parameters:
  | n_max_pulay                         :       10
  Geometry relaxation not requested: no relaxation will be performed.
  Handling of forces: Unphysical translation and rotation will be removed from forces.
  No accuracy limit for integral partition fn. given. Defaulting to 0.1000E-14.
  No threshold value for u(r) in integrations given. Defaulting to 0.1000E-05.
  No accuracy for occupation numbers given. Defaulting to 0.1000E-07.
  No threshold value for occupation numbers given. Defaulting to 0.0000E+00.
  No accuracy for fermi level given. Defaulting to 0.1000E-19.
  Maximum # of iterations to find E_F not set. Defaulting to  200.
  Will not use alltoall communication since running on < 1024 CPUs.
  Partitioning for Hartree potential was not defined. Using partition_type for integrals.
  | Reporting present value of keyword multip_moments_threshold  :       0.10000000E-09
  | This value may affect high angular momentum components of the Hartree potential in periodic systems.
  No q(lm)/r^(l+1) cutoff set for long-range Hartree potential.
  | Using default value of  0.100000E-09 .
  | Verify using the multipole_threshold keyword.
  Defaulting to new monopole extrapolation.
  Density update method: Loop over occupied states selected for charge density update.
------------------------------------------------------------


------------------------------------------------------------
          Reading geometry description geometry.in.
------------------------------------------------------------
  Input structure read successfully.
  The structure contains       19 atoms,  and a total of         61.000 electrons.

  Input geometry:
  | No unit cell requested.
  | Atomic structure:
  |       Atom                x [A]            y [A]            z [A]
  |    1: Species O             -4.053030         0.065001        -1.525160
  |    2: Species H             -4.566710         0.974813        -1.912820
  |    3: Species H             -3.067820         0.330172        -1.477310
  |    4: Species H             -4.370360        -0.049164        -0.572274
  |    5: Species O             -4.581760        -0.256435         0.939478
  |    6: Species H             -4.349860         0.471090         1.504340
  |    7: Species H             -5.393870        -0.726611         1.228070
  |    8: Species O             -5.293160         2.192130        -2.328800
  |    9: Species H             -4.829300         2.988660        -1.973850
  |   10: Species H             -5.428570         2.328640        -3.235170
  |   11: Species O             -3.818880         2.024990         2.187990
  |   12: Species H             -3.690880         1.961360         3.202150
  |   13: Species H             -4.546490         2.751300         2.045370
  |   14: Species O             -1.975360         2.858040         0.453140
  |   15: Species H             -1.223550         3.375850         0.786238
  |   16: Species H             -2.537520         2.567960         1.156120
  |   17: Species O             -4.066610         4.258280        -0.900064
  |   18: Species H             -3.224110         3.876870        -0.569443
  |   19: Species H             -3.737450         5.116530        -1.322720
  |

  | The smallest distance between any two atoms is         0.92654057 AA.
  |
  | The first atom of this pair is atom number                      8 .
  | The second atom of this pair is atom number                    10 .

  Structure-dependent array size parameters: 
  | Maximum number of distinct radial functions  :       18
  | Maximum number of basis functions            :      429
  | Number of Kohn-Sham states (occupied + empty):      107
------------------------------------------------------------

------------------------------------------------------------
          Preparing all fixed parts of the calculation.
------------------------------------------------------------
  Determining machine precision:
    2.225073858507201E-308
  Setting up grids for atomic and cluster calculations.

  Creating wave function, potential, and density for free atoms.

  Species: H

  List of occupied orbitals and eigenvalues:
    n    l              occ      energy [Ha]    energy [eV]
    1    0           1.0000        -0.241408        -6.5691


  Species: O

  List of occupied orbitals and eigenvalues:
    n    l              occ      energy [Ha]    energy [eV]
    1    0           2.0000       -18.944147      -515.4965
    2    0           2.0000        -0.883529       -24.0421
    2    1           4.0000        -0.330176        -8.9845

  Creating fixed part of basis set: Ionic, confined, hydrogenic.
 
  H                    hydrogenic:
 
  List of hydrogenic basis orbitals: 
    n    l      effective z      eigenvalue [eV]  inner max. [A]     outer max. [A]     outer radius [A]   
    2    0         2.100000       -14.9965           0.193241           1.317192           5.372934
    2    1         3.500000       -41.6672           0.602363           0.602363           4.056010
    1    0         0.850000        -9.8292           0.624864           0.624864           5.372934
    2    1         3.700000       -46.5653           0.573616           0.573616           3.909951
    2    0         1.200000        -4.5995           0.334977           2.228160           5.505921
    3    2         7.000000       -74.0753           0.680692           0.680692           3.769152
 
 
  O                    hydrogenic:
 
  List of hydrogenic basis orbitals: 
    n    l      effective z      eigenvalue [eV]  inner max. [A]     outer max. [A]     outer radius [A]   
    2    1         1.800000       -11.0118           1.178546           1.178546           5.432516
    3    2         7.600000       -87.3182           0.624117           0.624117           3.541422
    3    0         6.400000       -61.9209           0.061166           1.081887           4.306510
    4    3        11.600000      -114.4238           0.731621           0.731621           3.584982
    3    1         6.200000       -58.1113           0.255677           1.030255           4.306510
    3    2         5.600000       -47.4081           0.847222           0.847222           4.413102
    5    4        17.600000      -168.5799           0.749730           0.749730           3.372413
    1    0         0.750000        -7.6499           0.705275           0.705275           5.366508
 

  Adding cutoff potential to free-atom effective potential.
  Creating atomic-like basis functions for current effective potential.

  Species H                   :

  List of atomic basis orbitals and eigenvalues:
    n    l      energy [Ha]    energy [eV]    outer radius [A]
    1    0        -0.241374        -6.5681       5.372934


  Species O                   :

  List of atomic basis orbitals and eigenvalues:
    n    l      energy [Ha]    energy [eV]    outer radius [A]
    1    0       -18.944147      -515.4965       1.415745
    2    0        -0.883529       -24.0421       5.048305
    2    1        -0.330173        -8.9845       5.301302

  Assembling full basis from fixed parts.
  | Species H :   atomic orbital   1 s accepted.
  | Species H :    hydro orbital   2 s accepted.
  | Species H :    hydro orbital   1 s accepted.
  | Species H :    hydro orbital   2 s accepted.
  | Species H :    hydro orbital   2 p accepted.
  | Species H :    hydro orbital   2 p accepted.
  | Species H :    hydro orbital   3 d accepted.
  | Species O :   atomic orbital   1 s accepted.
  | Species O :    hydro orbital   3 s accepted.
  | Species O :   atomic orbital   2 s accepted.
  | Species O :    hydro orbital   1 s accepted.
  | Species O :    hydro orbital   3 p accepted.
  | Species O :   atomic orbital   2 p accepted.
  | Species O :    hydro orbital   2 p accepted.
  | Species O :    hydro orbital   3 d accepted.
  | Species O :    hydro orbital   3 d accepted.
  | Species O :    hydro orbital   4 f accepted.
  | Species O :    hydro orbital   5 g accepted.
 
  Basis size parameters after reduction:
  | Total number of radial functions:       18
  | Total number of basis functions :      429
 
  Testing on-site integration grid accuracy.
  |  Species  Function  <phi|h_atom|phi> (log., in eV)  <phi|h_atom|phi> (rad., in eV)
           1        1                 -6.5683835025                 -6.5684759159
           1        2                 13.3711789951                 13.3708738703
           1        3                 23.6590910787                 23.6532055418
           1        4                 16.2963827186                 16.1870710655 ***
           1        5                 28.7627214838                 28.7627215090
           1        6                 59.5965249172                 59.5965950857
           1        7                 60.2220506392                 60.2220503827
           2        8               -515.4964576505               -515.4964530710
           2        9                 15.3030791347                 15.3030722972
           2       10                -21.7296094581                -21.7296135470
           2       11                 14.2969371730                 14.2969701621
           2       12                 21.0679693190                 21.0679697493
           2       13                 -2.3833606469                 -2.3833613176
           2       14                 13.7067136422                 13.7066766629
           2       15                 45.8013116808                 45.8013116965
           2       16                 52.2309815402                 52.2309831494
           2       17                 85.4120732416                 85.4120732763
           2       18                142.1019167745                142.1019167817
 * Note: Onsite integrals marked "***" above are less accurate than
 * onsite_accuracy_threshold =    0.03000 eV. Usually, this is harmless.
 * When in doubt, tighten the "radial" and/or "radial_multiplier" flags to check.

  Preparing densities etc. for the partition functions (integrals / Hartree potential).

  Preparations completed.
  max(cpu_time)          :      0.172 s.
  Wall clock time (cpu1) :      0.691 s.
------------------------------------------------------------

------------------------------------------------------------
          Begin self-consistency loop: Initialization.

          Date     :  20150727, Time     :  120000.529
------------------------------------------------------------

  Initializing index lists of integration centers etc. from given atomic structure:
  | Number of centers in hartree potential         :        19
  | Number of centers in hartree multipole         :        19
  | Number of centers in electron density summation:        19
  | Number of centers in basis integrals           :        19
  | Number of centers in integrals                 :        19
  Partitioning the integration grid into batches with parallel hashing+maxmin method.
  | Number of batches:     2444
  | Maximal batch size:     200
  | Minimal batch size:      49
  | Average batch size:     101.328
  | Standard deviation of batch sizes:      27.812

  Integration load balanced across     8 MPI tasks.
  Work distribution over tasks is as follows:
  Task     0 has      30938 integration points.
  Task     1 has      30956 integration points.
  Task     2 has      30937 integration points.
  Task     3 has      30980 integration points.
  Task     4 has      30980 integration points.
  Task     5 has      31009 integration points.
  Task     6 has      30959 integration points.
  Task     7 has      30887 integration points.
  Initializing partition tables, free-atom densities, potentials, etc. across the integration grid (initialize_grid_storage).
  | Net number of integration points:   247646
  | of which are non-zero points    :   247091
  Obtaining max. number of non-zero basis functions in each batch (get_n_compute_maxes).
  | Maximal number of non-zero basis functions:      425 in task     0
  | Maximal number of non-zero basis functions:      425 in task     1
  | Maximal number of non-zero basis functions:      424 in task     2
  | Maximal number of non-zero basis functions:      425 in task     3
  | Maximal number of non-zero basis functions:      425 in task     4
  | Maximal number of non-zero basis functions:      425 in task     5
  | Maximal number of non-zero basis functions:      425 in task     6
  | Maximal number of non-zero basis functions:      425 in task     7
  Integrating Hamiltonian matrix: batch-based integration.
  Time summed over all CPUs for integration: real work       12.506 s, elapsed       12.789 s
  Integrating overlap matrix.
  Time summed over all CPUs for integration: real work        6.835 s, elapsed        6.936 s

  Updating Kohn-Sham eigenvalues, eigenvectors, occupation numbers, and Fermi level.
  Solving generalized eigenproblem
  Updating Kohn-Sham eigenvalues and eigenfunctions.
  Transforming overlap matrix and checking for singularities.
  Overlap matrix is nonsingular:
  | Lowest eigenvalue:  0.184211E-03
  Solving real generalised eigenvalue problem by standard LAPACK (fast)
  Determining occupation numbers for Kohn-Sham eigenstates.
  | Chemical potential (Fermi level) in eV                 : -.27669049E+01
  | Error in electron count due to remaining E_F inaccuracy: -.38369308E-12
  | Maximum occupation number of highest empty state:  0.00E+00

  Writing Kohn-Sham eigenvalues.

  State    Occupation    Eigenvalue [Ha]    Eigenvalue [eV]
      1       2.00000         -19.065141         -518.78889
      2       2.00000         -19.064963         -518.78403
      3       2.00000         -19.059288         -518.62960
      4       2.00000         -19.056838         -518.56296
      5       2.00000         -19.042983         -518.18595
      6       2.00000         -19.035983         -517.99546
      7       2.00000          -1.130452          -30.76116
      8       2.00000          -1.117377          -30.40537
      9       2.00000          -1.109587          -30.19339
     10       2.00000          -1.103921          -30.03923
     11       2.00000          -1.086536          -29.56614
     12       2.00000          -1.069145          -29.09292
     13       2.00000          -0.655721          -17.84308
     14       2.00000          -0.653838          -17.79185
     15       2.00000          -0.653686          -17.78770
     16       2.00000          -0.641148          -17.44652
     17       2.00000          -0.621144          -16.90220
     18       2.00000          -0.609300          -16.57989
     19       2.00000          -0.597502          -16.25885
     20       2.00000          -0.536991          -14.61227
     21       2.00000          -0.517971          -14.09470
     22       2.00000          -0.513544          -13.97426
     23       2.00000          -0.503121          -13.69061
     24       2.00000          -0.495744          -13.48987
     25       2.00000          -0.483578          -13.15883
     26       2.00000          -0.453006          -12.32692
     27       2.00000          -0.446730          -12.15613
     28       2.00000          -0.444204          -12.08740
     29       2.00000          -0.433400          -11.79342
     30       2.00000          -0.432064          -11.75706
     31       1.00000          -0.101682           -2.76690
     32       0.00000          -0.073571           -2.00198
     33       0.00000          -0.064558           -1.75670
     34       0.00000          -0.048343           -1.31548
     35       0.00000          -0.039801           -1.08305
     36       0.00000          -0.027259           -0.74176
     37       0.00000          -0.015441           -0.42017
     38       0.00000           0.027573            0.75031
     39       0.00000           0.029542            0.80387
     40       0.00000           0.036862            1.00306
     41       0.00000           0.049978            1.35998
     42       0.00000           0.053618            1.45901
     43       0.00000           0.062584            1.70300
     44       0.00000           0.072677            1.97763
     45       0.00000           0.081757            2.22472
     46       0.00000           0.087769            2.38832
     47       0.00000           0.092678            2.52190
     48       0.00000           0.098602            2.68310
     49       0.00000           0.104152            2.83411
     50       0.00000           0.106653            2.90217
     51       0.00000           0.111103            3.02326
     52       0.00000           0.120092            3.26786
     53       0.00000           0.123841            3.36989
     54       0.00000           0.128905            3.50768
     55       0.00000           0.136272            3.70814
     56       0.00000           0.146197            3.97822
     57       0.00000           0.150745            4.10198
     58       0.00000           0.157352            4.28177
     59       0.00000           0.161147            4.38504
     60       0.00000           0.171882            4.67714
     61       0.00000           0.193255            5.25872
     62       0.00000           0.207691            5.65155
     63       0.00000           0.224065            6.09713
     64       0.00000           0.233794            6.36185
     65       0.00000           0.247195            6.72651
     66       0.00000           0.249245            6.78230
     67       0.00000           0.253686            6.90314
     68       0.00000           0.269381            7.33024
     69       0.00000           0.284193            7.73328
     70       0.00000           0.296451            8.06685
     71       0.00000           0.304675            8.29064
     72       0.00000           0.321942            8.76048
     73       0.00000           0.334140            9.09241
     74       0.00000           0.336859            9.16640
     75       0.00000           0.346893            9.43944
     76       0.00000           0.354514            9.64680
     77       0.00000           0.371724           10.11513
     78       0.00000           0.385894           10.50072
     79       0.00000           0.394999           10.74847
     80       0.00000           0.401835           10.93449
     81       0.00000           0.409293           11.13742
     82       0.00000           0.414363           11.27539
     83       0.00000           0.422867           11.50680
     84       0.00000           0.437954           11.91732
     85       0.00000           0.451117           12.27552
     86       0.00000           0.457644           12.45311
     87       0.00000           0.458640           12.48023
     88       0.00000           0.481923           13.11380
     89       0.00000           0.511980           13.93170
     90       0.00000           0.520596           14.16614
     91       0.00000           0.536394           14.59604
     92       0.00000           0.542719           14.76814
     93       0.00000           0.564144           15.35113
     94       0.00000           0.570051           15.51187
     95       0.00000           0.589733           16.04744
     96       0.00000           0.607414           16.52857
     97       0.00000           0.621329           16.90723
     98       0.00000           0.650878           17.71128
     99       0.00000           0.659084           17.93460
    100       0.00000           0.688888           18.74559
    101       0.00000           0.710624           19.33706
    102       0.00000           0.724022           19.70165
    103       0.00000           0.751561           20.45101
    104       0.00000           0.766274           20.85137
    105       0.00000           0.782375           21.28951
    106       0.00000           0.800124           21.77248
    107       0.00000           0.806898           21.95680

  Highest occupied state (VBM) at    -11.75706497 eV
  | Occupation number:      2.00000000

  Lowest unoccupied state (CBM) at    -2.76690487 eV
  | Occupation number:      1.00000000

  Overall HOMO-LUMO gap:      8.99016010 eV.
  Calculating total energy contributions from superposition of free atom densities.

  Total energy components:
  | Sum of eigenvalues            :        -261.37149355 Ha       -7112.28020827 eV
  | XC energy correction          :         -55.11105540 Ha       -1499.64811866 eV
  | XC potential correction       :          70.44368946 Ha        1916.87031938 eV
  | Free-atom electrostatic energy:        -214.12029131 Ha       -5826.50957618 eV
  | Hartree energy correction     :           0.00000000 Ha           0.00000000 eV
  | van der Waals energy corr.    :           0.00000000 Ha           0.00000000 eV
  | Entropy correction            :          -0.00010367 Ha          -0.00282095 eV
  | ---------------------------
  | Total energy                  :        -460.15915080 Ha      -12521.56758373 eV
  | Total energy, T -> 0          :        -460.15925447 Ha      -12521.57040468 eV  <-- do not rely on this value for anything but (periodic) metals
  | Electronic free energy        :        -460.15935814 Ha      -12521.57322563 eV

  Derived energy quantities:
  | Kinetic energy                :         455.79904949 Ha       12402.92319034 eV
  | Electrostatic energy          :        -860.84714489 Ha      -23424.84265541 eV
  | Energy correction for multipole
  | error in Hartree potential    :           0.00000000 Ha           0.00000000 eV
  | Sum of eigenvalues per atom                           :        -374.33053728 eV
  | Total energy (T->0) per atom                          :        -659.03002130 eV  <-- do not rely on this value for anything but (periodic) metals
  | Electronic free energy per atom                       :        -659.03016977 eV
  Initialize hartree_potential_storage
  Max. number of atoms included in rho_multipole:           19

  End scf initialization - timings             :  max(cpu_time)    wall_clock(cpu1)
  | Time for scf. initialization               :        3.325 s           3.325 s
  | Boundary condition initialization          :        0.000 s           0.001 s
  | Integration                                :        2.472 s           2.472 s
  | Solution of K.-S. eqns.                    :        0.328 s           0.328 s
  | Grid partitioning                          :        0.201 s           0.200 s
  | Preloading free-atom quantities on grid    :        0.013 s           0.013 s
  | Free-atom superposition energy             :        0.099 s           0.099 s
  | Total energy evaluation                    :        0.000 s           0.000 s
------------------------------------------------------------

------------------------------------------------------------
          Begin self-consistency iteration #    1

  Date     :  20150727, Time     :  120003.854
------------------------------------------------------------
  Evaluating new KS density.
  Integration grid: deviation in total charge (<rho> - N_e) =  -3.481659E-13
  Pulay mixing of updated and previous charge densities.

  Evaluating partitioned Hartree potential by multipole expansion.
  | Analytical far-field extrapolation by fixed multipoles:
  | Hartree multipole sum: apparent total charge =  -0.156901E-05
  Summing up the Hartree potential.
  Time summed over all CPUs for potential: real work        4.066 s, elapsed        4.077 s
  | RMS charge density error from multipole expansion :   0.184920E-02

  Integrating Hamiltonian matrix: batch-based integration.
  Time summed over all CPUs for integration: real work       12.465 s, elapsed       12.764 s

  Updating Kohn-Sham eigenvalues, eigenvectors, occupation numbers, and Fermi level.
  Solving generalized eigenproblem
  Updating Kohn-Sham eigenvalues and eigenfunctions.
  Solving real generalised eigenvalue problem by standard LAPACK (fast)
  Determining occupation numbers for Kohn-Sham eigenstates.
  | Chemical potential (Fermi level) in eV                 : -.25006331E+01
  | Error in electron count due to remaining E_F inaccuracy: 0.35328185E-10
  | Maximum occupation number of highest empty state:  0.00E+00

  Writing Kohn-Sham eigenvalues.

  State    Occupation    Eigenvalue [Ha]    Eigenvalue [eV]
      1       2.00000         -19.012336         -517.35197
      2       2.00000         -18.994846         -516.87607
      3       2.00000         -18.983607         -516.57022
      4       2.00000         -18.972635         -516.27168
      5       2.00000         -18.966929         -516.11641
      6       2.00000         -18.966501         -516.10475
      7       2.00000          -1.102597          -30.00318
      8       2.00000          -1.084327          -29.50603
      9       2.00000          -1.069100          -29.09168
     10       2.00000          -1.065599          -28.99641
     11       2.00000          -1.047001          -28.49035
     12       2.00000          -1.033460          -28.12187
     13       2.00000          -0.624655          -16.99772
     14       2.00000          -0.622655          -16.94329
     15       2.00000          -0.617733          -16.80936
     16       2.00000          -0.615837          -16.75778
     17       2.00000          -0.598907          -16.29710
     18       2.00000          -0.574938          -15.64487
     19       2.00000          -0.567575          -15.44451
     20       2.00000          -0.505611          -13.75837
     21       2.00000          -0.480246          -13.06815
     22       2.00000          -0.477822          -13.00221
     23       2.00000          -0.466060          -12.68215
     24       2.00000          -0.459465          -12.50267
     25       2.00000          -0.451196          -12.27767
     26       2.00000          -0.418762          -11.39509
     27       2.00000          -0.408500          -11.11586
     28       2.00000          -0.400635          -10.90185
     29       2.00000          -0.394481          -10.73438
     30       2.00000          -0.392022          -10.66745
     31       1.00000          -0.091897           -2.50063
     32       0.00000          -0.065140           -1.77256
     33       0.00000          -0.055912           -1.52144
     34       0.00000          -0.040371           -1.09855
     35       0.00000          -0.032182           -0.87572
     36       0.00000          -0.019716           -0.53650
     37       0.00000          -0.006336           -0.17240
     38       0.00000           0.036549            0.99454
     39       0.00000           0.038128            1.03751
     40       0.00000           0.044787            1.21872
     41       0.00000           0.058150            1.58235
     42       0.00000           0.061914            1.68476
     43       0.00000           0.071140            1.93582
     44       0.00000           0.080799            2.19864
     45       0.00000           0.090019            2.44954
     46       0.00000           0.095248            2.59183
     47       0.00000           0.102235            2.78195
     48       0.00000           0.106234            2.89076
     49       0.00000           0.114364            3.11199
     50       0.00000           0.118562            3.22624
     51       0.00000           0.121910            3.31734
     52       0.00000           0.130974            3.56399
     53       0.00000           0.134419            3.65773
     54       0.00000           0.139210            3.78809
     55       0.00000           0.145490            3.95897
     56       0.00000           0.156633            4.26220
     57       0.00000           0.166190            4.52227
     58       0.00000           0.171579            4.66890
     59       0.00000           0.171686            4.67180
     60       0.00000           0.184578            5.02262
     61       0.00000           0.202018            5.49720
     62       0.00000           0.217178            5.90973
     63       0.00000           0.232704            6.33221
     64       0.00000           0.241816            6.58015
     65       0.00000           0.255299            6.94705
     66       0.00000           0.257751            7.01376
     67       0.00000           0.262416            7.14071
     68       0.00000           0.277407            7.54862
     69       0.00000           0.291937            7.94400
     70       0.00000           0.303955            8.27103
     71       0.00000           0.312381            8.50031
     72       0.00000           0.330377            8.99002
     73       0.00000           0.342694            9.32518
     74       0.00000           0.345450            9.40017
     75       0.00000           0.355618            9.67687
     76       0.00000           0.364019            9.90547
     77       0.00000           0.380375           10.35053
     78       0.00000           0.395417           10.75985
     79       0.00000           0.403166           10.97070
     80       0.00000           0.411050           11.18525
     81       0.00000           0.417620           11.36403
     82       0.00000           0.422639           11.50059
     83       0.00000           0.434032           11.81060
     84       0.00000           0.445289           12.11692
     85       0.00000           0.459337           12.49918
     86       0.00000           0.464666           12.64421
     87       0.00000           0.470118           12.79255
     88       0.00000           0.489959           13.33247
     89       0.00000           0.523338           14.24075
     90       0.00000           0.531119           14.45247
     91       0.00000           0.546562           14.87271
     92       0.00000           0.554719           15.09467
     93       0.00000           0.574160           15.62370
     94       0.00000           0.582099           15.83971
     95       0.00000           0.601226           16.36020
     96       0.00000           0.619371           16.85396
     97       0.00000           0.634701           17.27111
     98       0.00000           0.661169           17.99131
     99       0.00000           0.671331           18.26786
    100       0.00000           0.701769           19.09611
    101       0.00000           0.723370           19.68389
    102       0.00000           0.736458           20.04004
    103       0.00000           0.762263           20.74223
    104       0.00000           0.777317           21.15187
    105       0.00000           0.794750           21.62624
    106       0.00000           0.811270           22.07579
    107       0.00000           0.818927           22.28415

  Highest occupied state (VBM) at     -2.50063311 eV
  | Occupation number:      1.00000000

  Lowest unoccupied state (CBM) at    -1.77255970 eV
  | Occupation number:      0.00000000

  Overall HOMO-LUMO gap:      0.72807341 eV.

  Total energy components:
  | Sum of eigenvalues            :        -258.84397267 Ha       -7043.50286592 eV
  | XC energy correction          :         -55.37751333 Ha       -1506.89880797 eV
  | XC potential correction       :          70.79128118 Ha        1926.32877143 eV
  | Free-atom electrostatic energy:        -214.12029131 Ha       -5826.50957618 eV
  | Hartree energy correction     :          -2.46523053 Ha         -67.08233571 eV
  | van der Waals energy corr.    :           0.00000000 Ha           0.00000000 eV
  | Entropy correction            :          -0.00010367 Ha          -0.00282095 eV
  | ---------------------------
  | Total energy                  :        -460.01572667 Ha      -12517.66481435 eV
  | Total energy, T -> 0          :        -460.01583033 Ha      -12517.66763530 eV  <-- do not rely on this value for anything but (periodic) metals
  | Electronic free energy        :        -460.01593400 Ha      -12517.67045625 eV

  Derived energy quantities:
  | Kinetic energy                :         457.42212616 Ha       12447.08935388 eV
  | Electrostatic energy          :        -862.06033950 Ha      -23457.85536026 eV
  | Energy correction for multipole
  | error in Hartree potential    :           0.00046376 Ha           0.01261943 eV
  | Sum of eigenvalues per atom                           :        -370.71067715 eV
  | Total energy (T->0) per atom                          :        -658.82461238 eV  <-- do not rely on this value for anything but (periodic) metals
  | Electronic free energy per atom                       :        -658.82476086 eV

  Self-consistency convergence accuracy:
  | Change of charge density      : 0.6979E+00
  | Change of sum of eigenvalues  : 0.6878E+02 eV
  | Change of total energy        : 0.3903E+01 eV

  End self-consistency iteration #     1       :  max(cpu_time)    wall_clock(cpu1)
  | Time for this iteration                    :        3.296 s           3.297 s
  | Charge density update                      :        1.082 s           1.083 s
  | Density mixing                             :        0.004 s           0.004 s
  | Hartree multipole update                   :        0.007 s           0.007 s
  | Hartree multipole summation                :        0.511 s           0.511 s
  | Integration                                :        1.598 s           1.598 s
  | Solution of K.-S. eqns.                    :        0.093 s           0.093 s
  | Total energy evaluation                    :        0.000 s           0.001 s
------------------------------------------------------------

------------------------------------------------------------
          Begin self-consistency iteration #    2

  Date     :  20150727, Time     :  120007.151
------------------------------------------------------------
  Evaluating new KS density.
  Integration grid: deviation in total charge (<rho> - N_e) =   3.537792E-11
  Pulay mixing of updated and previous charge densities.

  Evaluating partitioned Hartree potential by multipole expansion.
  | Analytical far-field extrapolation by fixed multipoles:
  | Hartree multipole sum: apparent total charge =  -0.529638E-05
  Summing up the Hartree potential.
  Time summed over all CPUs for potential: real work        4.065 s, elapsed        4.076 s
  | RMS charge density error from multipole expansion :   0.759094E-02

  Integrating Hamiltonian matrix: batch-based integration.
  Time summed over all CPUs for integration: real work       12.437 s, elapsed       12.733 s

  Updating Kohn-Sham eigenvalues, eigenvectors, occupation numbers, and Fermi level.
  Solving generalized eigenproblem
  Updating Kohn-Sham eigenvalues and eigenfunctions.
  Solving real generalised eigenvalue problem by standard LAPACK (fast)
  Determining occupation numbers for Kohn-Sham eigenstates.
  | Chemical potential (Fermi level) in eV                 : -.18877170E+01
  | Error in electron count due to remaining E_F inaccuracy: -.10799468E-08
  | Maximum occupation number of highest empty state:  0.00E+00

  Highest occupied state (VBM) at     -7.78959497 eV
  | Occupation number:      2.00000000

  Lowest unoccupied state (CBM) at    -1.88771701 eV
  | Occupation number:      1.00000000

  Overall HOMO-LUMO gap:      5.90187797 eV.

  Total energy components:
  | Sum of eigenvalues            :        -252.65802324 Ha       -6875.17461750 eV
  | XC energy correction          :         -56.06365822 Ha       -1525.56976018 eV
  | XC potential correction       :          71.68437904 Ha        1950.63120081 eV
  | Free-atom electrostatic energy:        -214.12029131 Ha       -5826.50957618 eV
  | Hartree energy correction     :          -8.69370282 Ha        -236.56769009 eV
  | van der Waals energy corr.    :           0.00000000 Ha           0.00000000 eV
  | Entropy correction            :          -0.00010367 Ha          -0.00282095 eV
  | ---------------------------
  | Total energy                  :        -459.85129655 Ha      -12513.19044314 eV
  | Total energy, T -> 0          :        -459.85140021 Ha      -12513.19326409 eV  <-- do not rely on this value for anything but (periodic) metals
  | Electronic free energy        :        -459.85150388 Ha      -12513.19608504 eV

  Derived energy quantities:
  | Kinetic energy                :         460.87858621 Ha       12541.14441710 eV
  | Electrostatic energy          :        -864.66622454 Ha      -23528.76510006 eV
  | Energy correction for multipole
  | error in Hartree potential    :           0.00068600 Ha           0.01866688 eV
  | Sum of eigenvalues per atom                           :        -361.85129566 eV
  | Total energy (T->0) per atom                          :        -658.58911916 eV  <-- do not rely on this value for anything but (periodic) metals
  | Electronic free energy per atom                       :        -658.58926763 eV

  Self-consistency convergence accuracy:
  | Change of charge density      : 0.5313E+00
  | Change of sum of eigenvalues  : 0.1683E+03 eV
  | Change of total energy        : 0.4474E+01 eV

  End self-consistency iteration #     2       :  max(cpu_time)    wall_clock(cpu1)
  | Time for this iteration                    :        3.286 s           3.286 s
  | Charge density update                      :        1.077 s           1.077 s
  | Density mixing                             :        0.007 s           0.007 s
  | Hartree multipole update                   :        0.006 s           0.006 s
  | Hartree multipole summation                :        0.511 s           0.511 s
  | Integration                                :        1.594 s           1.594 s
  | Solution of K.-S. eqns.                    :        0.091 s           0.091 s
  | Total energy evaluation                    :        0.000 s           0.000 s
------------------------------------------------------------

------------------------------------------------------------
          Begin self-consistency iteration #    3

  Date     :  20150727, Time     :  120010.437
------------------------------------------------------------
  Evaluating new KS density.
  Integration grid: deviation in total charge (<rho> - N_e) =  -1.079918E-09
  Pulay mixing of updated and previous charge densities.

  Evaluating partitioned Hartree potential by multipole expansion.
  | Analytical far-field extrapolation by fixed multipoles:
  | Hartree multipole sum: apparent total charge =  -0.577084E-05
  Summing up the Hartree potential.
  Time summed over all CPUs for potential: real work        4.065 s, elapsed        4.076 s
  | RMS charge density error from multipole expansion :   0.155125E-01

  Integrating Hamiltonian matrix: batch-based integration.
  Time summed over all CPUs for integration: real work       12.439 s, elapsed       12.735 s

  Updating Kohn-Sham eigenvalues, eigenvectors, occupation numbers, and Fermi level.
  Solving generalized eigenproblem
  Updating Kohn-Sham eigenvalues and eigenfunctions.
  Solving real generalised eigenvalue problem by standard LAPACK (fast)
  Determining occupation numbers for Kohn-Sham eigenstates.
  | Chemical potential (Fermi level) in eV                 : -.18438334E+01
  | Error in electron count due to remaining E_F inaccuracy: 0.19184654E-11
  | Maximum occupation number of highest empty state:  0.00E+00

  Highest occupied state (VBM) at     -1.84383338 eV
  | Occupation number:      1.00000000

  Lowest unoccupied state (CBM) at    -1.22028201 eV
  | Occupation number:      0.00000000

  Overall HOMO-LUMO gap:      0.62355136 eV.

  Total energy components:
  | Sum of eigenvalues            :        -253.02081520 Ha       -6885.04668885 eV
  | XC energy correction          :         -56.06442082 Ha       -1525.59051175 eV
  | XC potential correction       :          71.67445025 Ha        1950.36102446 eV
  | Free-atom electrostatic energy:        -214.12029131 Ha       -5826.50957618 eV
  | Hartree energy correction     :          -8.31930113 Ha        -226.37970182 eV
  | van der Waals energy corr.    :           0.00000000 Ha           0.00000000 eV
  | Entropy correction            :          -0.00010367 Ha          -0.00282095 eV
  | ---------------------------
  | Total energy                  :        -459.85037822 Ha      -12513.16545414 eV
  | Total energy, T -> 0          :        -459.85048189 Ha      -12513.16827509 eV  <-- do not rely on this value for anything but (periodic) metals
  | Electronic free energy        :        -459.85058555 Ha      -12513.17109603 eV

  Derived energy quantities:
  | Kinetic energy                :         458.70369386 Ha       12481.96258509 eV
  | Electrostatic energy          :        -862.48965125 Ha      -23469.53752748 eV
  | Energy correction for multipole
  | error in Hartree potential    :          -0.00500136 Ha          -0.13609404 eV
  | Sum of eigenvalues per atom                           :        -362.37087836 eV
  | Total energy (T->0) per atom                          :        -658.58780395 eV  <-- do not rely on this value for anything but (periodic) metals
  | Electronic free energy per atom                       :        -658.58795242 eV

  Self-consistency convergence accuracy:
  | Change of charge density      : 0.2538E+00
  | Change of sum of eigenvalues  : -.9872E+01 eV
  | Change of total energy        : 0.2499E-01 eV

  End self-consistency iteration #     3       :  max(cpu_time)    wall_clock(cpu1)
  | Time for this iteration                    :        3.286 s           3.286 s
  | Charge density update                      :        1.073 s           1.074 s
  | Density mixing                             :        0.009 s           0.009 s
  | Hartree multipole update                   :        0.007 s           0.006 s
  | Hartree multipole summation                :        0.510 s           0.510 s
  | Integration                                :        1.595 s           1.594 s
  | Solution of K.-S. eqns.                    :        0.091 s           0.092 s
  | Total energy evaluation                    :        0.000 s           0.000 s
------------------------------------------------------------

------------------------------------------------------------
          Begin self-consistency iteration #    4

  Date     :  20150727, Time     :  120013.723
------------------------------------------------------------
  Evaluating new KS density.
  Integration grid: deviation in total charge (<rho> - N_e) =   1.925571E-12
  Pulay mixing of updated and previous charge densities.

  Evaluating partitioned Hartree potential by multipole expansion.
  | Analytical far-field extrapolation by fixed multipoles:
  | Hartree multipole sum: apparent total charge =  -0.672762E-05
  Summing up the Hartree potential.
  Time summed over all CPUs for potential: real work        4.064 s, elapsed        4.075 s
  | RMS charge density error from multipole expansion :   0.188314E-01

  Integrating Hamiltonian matrix: batch-based integration.
  Time summed over all CPUs for integration: real work       12.438 s, elapsed       12.751 s

  Updating Kohn-Sham eigenvalues, eigenvectors, occupation numbers, and Fermi level.
  Solving generalized eigenproblem
  Updating Kohn-Sham eigenvalues and eigenfunctions.
  Solving real generalised eigenvalue problem by standard LAPACK (fast)
  Determining occupation numbers for Kohn-Sham eigenstates.
  | Chemical potential (Fermi level) in eV                 : -.17149704E+01
  | Error in electron count due to remaining E_F inaccuracy: -.69495840E-08
  | Maximum occupation number of highest empty state:  0.00E+00

  Highest occupied state (VBM) at     -6.99557951 eV
  | Occupation number:      2.00000000

  Lowest unoccupied state (CBM) at    -1.71497043 eV
  | Occupation number:      0.99999999

  Overall HOMO-LUMO gap:      5.28060908 eV.

  Total energy components:
  | Sum of eigenvalues            :        -251.81417506 Ha       -6852.21234010 eV
  | XC energy correction          :         -56.22461874 Ha       -1529.94971876 eV
  | XC potential correction       :          71.88021184 Ha        1955.96008234 eV
  | Free-atom electrostatic energy:        -214.12029131 Ha       -5826.50957618 eV
  | Hartree energy correction     :          -9.56568709 Ha        -260.29558941 eV
  | van der Waals energy corr.    :           0.00000000 Ha           0.00000000 eV
  | Entropy correction            :          -0.00010367 Ha          -0.00282095 eV
  | ---------------------------
  | Total energy                  :        -459.84456036 Ha      -12513.00714211 eV
  | Total energy, T -> 0          :        -459.84466402 Ha      -12513.00996306 eV  <-- do not rely on this value for anything but (periodic) metals
  | Electronic free energy        :        -459.84476769 Ha      -12513.01278400 eV

  Derived energy quantities:
  | Kinetic energy                :         458.83955095 Ha       12485.65944480 eV
  | Electrostatic energy          :        -862.45949258 Ha      -23468.71686814 eV
  | Energy correction for multipole
  | error in Hartree potential    :          -0.00656456 Ha          -0.17863079 eV
  | Sum of eigenvalues per atom                           :        -360.64275474 eV
  | Total energy (T->0) per atom                          :        -658.57947174 eV  <-- do not rely on this value for anything but (periodic) metals
  | Electronic free energy per atom                       :        -658.57962021 eV

  Self-consistency convergence accuracy:
  | Change of charge density      : 0.1149E+00
  | Change of sum of eigenvalues  : 0.3283E+02 eV
  | Change of total energy        : 0.1583E+00 eV

  End self-consistency iteration #     4       :  max(cpu_time)    wall_clock(cpu1)
  | Time for this iteration                    :        3.289 s           3.289 s
  | Charge density update                      :        1.073 s           1.073 s
  | Density mixing                             :        0.011 s           0.011 s
  | Hartree multipole update                   :        0.006 s           0.006 s
  | Hartree multipole summation                :        0.510 s           0.510 s
  | Integration                                :        1.597 s           1.597 s
  | Solution of K.-S. eqns.                    :        0.092 s           0.091 s
  | Total energy evaluation                    :        0.000 s           0.000 s
------------------------------------------------------------

------------------------------------------------------------
          Begin self-consistency iteration #    5

  Date     :  20150727, Time     :  120017.012
------------------------------------------------------------
  Evaluating new KS density.
  Integration grid: deviation in total charge (<rho> - N_e) =  -6.949548E-09
  Pulay mixing of updated and previous charge densities.

  Evaluating partitioned Hartree potential by multipole expansion.
  | Analytical far-field extrapolation by fixed multipoles:
  | Hartree multipole sum: apparent total charge =  -0.698879E-05
  Summing up the Hartree potential.
  Time summed over all CPUs for potential: real work        4.064 s, elapsed        4.075 s
  | RMS charge density error from multipole expansion :   0.196874E-01

  Integrating Hamiltonian matrix: batch-based integration.
  Time summed over all CPUs for integration: real work       12.437 s, elapsed       12.742 s

  Updating Kohn-Sham eigenvalues, eigenvectors, occupation numbers, and Fermi level.
  Solving generalized eigenproblem
  Updating Kohn-Sham eigenvalues and eigenfunctions.
  Solving real generalised eigenvalue problem by standard LAPACK (fast)
  Determining occupation numbers for Kohn-Sham eigenstates.
  | Chemical potential (Fermi level) in eV                 : -.16936886E+01
  | Error in electron count due to remaining E_F inaccuracy: 0.16214514E-08
  | Maximum occupation number of highest empty state:  0.00E+00

  Highest occupied state (VBM) at     -1.69368860 eV
  | Occupation number:      1.00000000

  Lowest unoccupied state (CBM) at    -1.08301881 eV
  | Occupation number:      0.00000000

  Overall HOMO-LUMO gap:      0.61066979 eV.

  Total energy components:
  | Sum of eigenvalues            :        -251.66123568 Ha       -6848.05064775 eV
  | XC energy correction          :         -56.24848304 Ha       -1530.59909945 eV
  | XC potential correction       :          71.91026577 Ha        1956.77789123 eV
  | Free-atom electrostatic energy:        -214.12029131 Ha       -5826.50957618 eV
  | Hartree energy correction     :          -9.72443922 Ha        -264.61545461 eV
  | van der Waals energy corr.    :           0.00000000 Ha           0.00000000 eV
  | Entropy correction            :          -0.00010367 Ha          -0.00282095 eV
  | ---------------------------
  | Total energy                  :        -459.84418348 Ha      -12512.99688677 eV
  | Total energy, T -> 0          :        -459.84428715 Ha      -12512.99970771 eV  <-- do not rely on this value for anything but (periodic) metals
  | Electronic free energy        :        -459.84439082 Ha      -12513.00252866 eV

  Derived energy quantities:
  | Kinetic energy                :         458.82637314 Ha       12485.30085816 eV
  | Electrostatic energy          :        -862.42207358 Ha      -23467.69864547 eV
  | Energy correction for multipole
  | error in Hartree potential    :          -0.00723525 Ha          -0.19688110 eV
  | Sum of eigenvalues per atom                           :        -360.42371830 eV
  | Total energy (T->0) per atom                          :        -658.57893198 eV  <-- do not rely on this value for anything but (periodic) metals
  | Electronic free energy per atom                       :        -658.57908046 eV

  Self-consistency convergence accuracy:
  | Change of charge density      : 0.3663E-01
  | Change of sum of eigenvalues  : 0.4162E+01 eV
  | Change of total energy        : 0.1026E-01 eV

  End self-consistency iteration #     5       :  max(cpu_time)    wall_clock(cpu1)
  | Time for this iteration                    :        3.289 s           3.288 s
  | Charge density update                      :        1.073 s           1.072 s
  | Density mixing                             :        0.012 s           0.013 s
  | Hartree multipole update                   :        0.007 s           0.006 s
  | Hartree multipole summation                :        0.510 s           0.510 s
  | Integration                                :        1.596 s           1.596 s
  | Solution of K.-S. eqns.                    :        0.090 s           0.090 s
  | Total energy evaluation                    :        0.000 s           0.001 s
------------------------------------------------------------

------------------------------------------------------------
          Begin self-consistency iteration #    6

  Date     :  20150727, Time     :  120020.300
------------------------------------------------------------
  Evaluating new KS density.
  Integration grid: deviation in total charge (<rho> - N_e) =   1.621494E-09
  Pulay mixing of updated and previous charge densities.

  Evaluating partitioned Hartree potential by multipole expansion.
  | Analytical far-field extrapolation by fixed multipoles:
  | Hartree multipole sum: apparent total charge =  -0.704611E-05
  Summing up the Hartree potential.
  Time summed over all CPUs for potential: real work        4.064 s, elapsed        4.075 s
  | RMS charge density error from multipole expansion :   0.199000E-01

  Integrating Hamiltonian matrix: batch-based integration.
  Time summed over all CPUs for integration: real work       12.438 s, elapsed       12.742 s

  Updating Kohn-Sham eigenvalues, eigenvectors, occupation numbers, and Fermi level.
  Solving generalized eigenproblem
  Updating Kohn-Sham eigenvalues and eigenfunctions.
  Solving real generalised eigenvalue problem by standard LAPACK (fast)
  Determining occupation numbers for Kohn-Sham eigenstates.
  | Chemical potential (Fermi level) in eV                 : -.16994481E+01
  | Error in electron count due to remaining E_F inaccuracy: 0.23934632E-09
  | Maximum occupation number of highest empty state:  0.00E+00

  Highest occupied state (VBM) at     -1.69944815 eV
  | Occupation number:      1.00000000

  Lowest unoccupied state (CBM) at    -1.08911905 eV
  | Occupation number:      0.00000000

  Overall HOMO-LUMO gap:      0.61032909 eV.

  Total energy components:
  | Sum of eigenvalues            :        -251.69500953 Ha       -6848.96968103 eV
  | XC energy correction          :         -56.24682468 Ha       -1530.55397322 eV
  | XC potential correction       :          71.90771126 Ha        1956.70837960 eV
  | Free-atom electrostatic energy:        -214.12029131 Ha       -5826.50957618 eV
  | Hartree energy correction     :          -9.68975205 Ha        -263.67156871 eV
  | van der Waals energy corr.    :           0.00000000 Ha           0.00000000 eV
  | Entropy correction            :          -0.00010367 Ha          -0.00282095 eV
  | ---------------------------
  | Total energy                  :        -459.84416631 Ha      -12512.99641954 eV
  | Total energy, T -> 0          :        -459.84426998 Ha      -12512.99924049 eV  <-- do not rely on this value for anything but (periodic) metals
  | Electronic free energy        :        -459.84437365 Ha      -12513.00206144 eV

  Derived energy quantities:
  | Kinetic energy                :         458.79496715 Ha       12484.44625767 eV
  | Electrostatic energy          :        -862.39230878 Ha      -23466.88870399 eV
  | Energy correction for multipole
  | error in Hartree potential    :          -0.00749281 Ha          -0.20388982 eV
  | Sum of eigenvalues per atom                           :        -360.47208848 eV
  | Total energy (T->0) per atom                          :        -658.57890739 eV  <-- do not rely on this value for anything but (periodic) metals
  | Electronic free energy per atom                       :        -658.57905587 eV

  Self-consistency convergence accuracy:
  | Change of charge density      : 0.9820E-02
  | Change of sum of eigenvalues  : -.9190E+00 eV
  | Change of total energy        : 0.4672E-03 eV

  End self-consistency iteration #     6       :  max(cpu_time)    wall_clock(cpu1)
  | Time for this iteration                    :        3.287 s           3.287 s
  | Charge density update                      :        1.068 s           1.068 s
  | Density mixing                             :        0.014 s           0.014 s
  | Hartree multipole update                   :        0.007 s           0.007 s
  | Hartree multipole summation                :        0.510 s           0.510 s
  | Integration                                :        1.596 s           1.595 s
  | Solution of K.-S. eqns.                    :        0.092 s           0.091 s
  | Total energy evaluation                    :        0.000 s           0.000 s
------------------------------------------------------------

------------------------------------------------------------
          Begin self-consistency iteration #    7

  Date     :  20150727, Time     :  120023.587
------------------------------------------------------------
  Evaluating new KS density.
  Integration grid: deviation in total charge (<rho> - N_e) =   2.394103E-10
  Pulay mixing of updated and previous charge densities.

  Evaluating partitioned Hartree potential by multipole expansion.
  | Analytical far-field extrapolation by fixed multipoles:
  | Hartree multipole sum: apparent total charge =  -0.706992E-05
  Summing up the Hartree potential.
  Time summed over all CPUs for potential: real work        4.064 s, elapsed        4.075 s
  | RMS charge density error from multipole expansion :   0.199376E-01

  Integrating Hamiltonian matrix: batch-based integration.
  Time summed over all CPUs for integration: real work       12.436 s, elapsed       12.740 s

  Updating Kohn-Sham eigenvalues, eigenvectors, occupation numbers, and Fermi level.
  Solving generalized eigenproblem
  Updating Kohn-Sham eigenvalues and eigenfunctions.
  Solving real generalised eigenvalue problem by standard LAPACK (fast)
  Determining occupation numbers for Kohn-Sham eigenstates.
  | Chemical potential (Fermi level) in eV                 : -.17107702E+01
  | Error in electron count due to remaining E_F inaccuracy: -.29956482E-10
  | Maximum occupation number of highest empty state:  0.00E+00

  Highest occupied state (VBM) at     -7.00665595 eV
  | Occupation number:      2.00000000

  Lowest unoccupied state (CBM) at    -1.71077018 eV
  | Occupation number:      1.00000000

  Overall HOMO-LUMO gap:      5.29588577 eV.

  Total energy components:
  | Sum of eigenvalues            :        -251.73947303 Ha       -6850.17959443 eV
  | XC energy correction          :         -56.24326953 Ha       -1530.45723266 eV
  | XC potential correction       :          71.90282200 Ha        1956.57533600 eV
  | Free-atom electrostatic energy:        -214.12029131 Ha       -5826.50957618 eV
  | Hartree energy correction     :          -9.64394197 Ha        -262.42501306 eV
  | van der Waals energy corr.    :           0.00000000 Ha           0.00000000 eV
  | Entropy correction            :          -0.00010367 Ha          -0.00282095 eV
  | ---------------------------
  | Total energy                  :        -459.84415384 Ha      -12512.99608034 eV
  | Total energy, T -> 0          :        -459.84425751 Ha      -12512.99890128 eV  <-- do not rely on this value for anything but (periodic) metals
  | Electronic free energy        :        -459.84436118 Ha      -12513.00172223 eV

  Derived energy quantities:
  | Kinetic energy                :         458.82904712 Ha       12485.37362106 eV
  | Electrostatic energy          :        -862.42993144 Ha      -23467.91246873 eV
  | Energy correction for multipole
  | error in Hartree potential    :          -0.00769466 Ha          -0.20938234 eV
  | Sum of eigenvalues per atom                           :        -360.53576813 eV
  | Total energy (T->0) per atom                          :        -658.57888954 eV  <-- do not rely on this value for anything but (periodic) metals
  | Electronic free energy per atom                       :        -658.57903801 eV

  Self-consistency convergence accuracy:
  | Change of charge density      : 0.7015E-02
  | Change of sum of eigenvalues  : -.1210E+01 eV
  | Change of total energy        : 0.3392E-03 eV

  End self-consistency iteration #     7       :  max(cpu_time)    wall_clock(cpu1)
  | Time for this iteration                    :        3.289 s           3.289 s
  | Charge density update                      :        1.069 s           1.068 s
  | Density mixing                             :        0.015 s           0.016 s
  | Hartree multipole update                   :        0.007 s           0.006 s
  | Hartree multipole summation                :        0.510 s           0.511 s
  | Integration                                :        1.596 s           1.595 s
  | Solution of K.-S. eqns.                    :        0.092 s           0.092 s
  | Total energy evaluation                    :        0.000 s           0.000 s
------------------------------------------------------------

------------------------------------------------------------
          Begin self-consistency iteration #    8

  Date     :  20150727, Time     :  120026.876
------------------------------------------------------------
  Evaluating new KS density.
  Integration grid: deviation in total charge (<rho> - N_e) =  -2.994227E-11
  Pulay mixing of updated and previous charge densities.

  Evaluating partitioned Hartree potential by multipole expansion.
  | Analytical far-field extrapolation by fixed multipoles:
  | Hartree multipole sum: apparent total charge =  -0.716073E-05
  Summing up the Hartree potential.
  Time summed over all CPUs for potential: real work        4.064 s, elapsed        4.075 s
  | RMS charge density error from multipole expansion :   0.200451E-01

  Integrating Hamiltonian matrix: batch-based integration.
  Time summed over all CPUs for integration: real work       12.440 s, elapsed       12.751 s

  Updating Kohn-Sham eigenvalues, eigenvectors, occupation numbers, and Fermi level.
  Solving generalized eigenproblem
  Updating Kohn-Sham eigenvalues and eigenfunctions.
  Solving real generalised eigenvalue problem by standard LAPACK (fast)
  Determining occupation numbers for Kohn-Sham eigenstates.
  | Chemical potential (Fermi level) in eV                 : -.17179091E+01
  | Error in electron count due to remaining E_F inaccuracy: -.10319638E-08
  | Maximum occupation number of highest empty state:  0.00E+00

  Highest occupied state (VBM) at     -7.02179814 eV
  | Occupation number:      2.00000000

  Lowest unoccupied state (CBM) at    -1.71790912 eV
  | Occupation number:      1.00000000

  Overall HOMO-LUMO gap:      5.30388903 eV.

  Total energy components:
  | Sum of eigenvalues            :        -251.77840821 Ha       -6851.23907467 eV
  | XC energy correction          :         -56.24181676 Ha       -1530.41770077 eV
  | XC potential correction       :          71.90065739 Ha        1956.51643416 eV
  | Free-atom electrostatic energy:        -214.12029131 Ha       -5826.50957618 eV
  | Hartree energy correction     :          -9.60428929 Ha        -261.34600874 eV
  | van der Waals energy corr.    :           0.00000000 Ha           0.00000000 eV
  | Entropy correction            :          -0.00010367 Ha          -0.00282095 eV
  | ---------------------------
  | Total energy                  :        -459.84414818 Ha      -12512.99592621 eV
  | Total energy, T -> 0          :        -459.84425185 Ha      -12512.99874716 eV  <-- do not rely on this value for anything but (periodic) metals
  | Electronic free energy        :        -459.84435552 Ha      -12513.00156810 eV

  Derived energy quantities:
  | Kinetic energy                :         458.84032589 Ha       12485.68053198 eV
  | Electrostatic energy          :        -862.44265732 Ha      -23468.25875742 eV
  | Energy correction for multipole
  | error in Hartree potential    :          -0.00791455 Ha          -0.21536581 eV
  | Sum of eigenvalues per atom                           :        -360.59153025 eV
  | Total energy (T->0) per atom                          :        -658.57888143 eV  <-- do not rely on this value for anything but (periodic) metals
  | Electronic free energy per atom                       :        -658.57902990 eV

  Self-consistency convergence accuracy:
  | Change of charge density      : 0.3845E-02
  | Change of sum of eigenvalues  : -.1059E+01 eV
  | Change of total energy        : 0.1541E-03 eV

  End self-consistency iteration #     8       :  max(cpu_time)    wall_clock(cpu1)
  | Time for this iteration                    :        3.291 s           3.290 s
  | Charge density update                      :        1.068 s           1.068 s
  | Density mixing                             :        0.017 s           0.017 s
  | Hartree multipole update                   :        0.007 s           0.007 s
  | Hartree multipole summation                :        0.510 s           0.510 s
[...]
   Hellmann-Feynman + Multipole  : -.696098E+00 -.359296E+00 0.165361E+01
   Pulay + GGA                   : -.423841E-01 -.232319E-01 0.610687E-01
   Van der Waals               : -.192967E-02 -.484222E-02 -.426663E-02
   ----------------------------------------------------------------
   Total forces(  16)            : -.740412E+00 -.387370E+00 0.171041E+01
  atom #   17
   Hellmann-Feynman + Multipole  : -.120873E+02 -.271303E+01 0.283740E+01
   Pulay + GGA                   : 0.125146E+02 0.414038E+01 -.379684E+01
   Van der Waals               : -.168411E-02 -.142083E-02 -.421474E-03
   ----------------------------------------------------------------
   Total forces(  17)            : 0.425652E+00 0.142593E+01 -.959859E+00
  atom #   18
   Hellmann-Feynman + Multipole  : 0.139523E+00 -.327014E+00 0.340213E+00
   Pulay + GGA                   : 0.785371E-01 -.356309E-01 0.199490E-01
   Van der Waals               : 0.213058E-03 -.477179E-02 -.192521E-02
   ----------------------------------------------------------------
   Total forces(  18)            : 0.218273E+00 -.367417E+00 0.358237E+00
  atom #   19
   Hellmann-Feynman + Multipole  : -.730840E+00 -.127516E+01 0.582433E+00
   Pulay + GGA                   : 0.465590E-01 0.103702E+00 -.583735E-01
   Van der Waals               : -.142052E-03 -.575669E-02 0.205422E-02
   ----------------------------------------------------------------
   Total forces(  19)            : -.684423E+00 -.117722E+01 0.526114E+00
  Timings for vdw_correction_hirshfeld (Tkatchenko-Scheffler 2009):
  | CPU time:        8.885 s, Wall clock time:        8.884 s.
  Removing unitary transformations (pure translations, rotations) from forces on atoms.
  Atomic forces before filtering:
  | Net force on center of mass :  0.862155E-02 -.713542E-02 0.182770E-02 eV/A
  | Net torque on center of mass:  0.513149E-02 -.381557E-02 -.965708E-02 eV
  Atomic forces after filtering:
  | Net force on center of mass :  -.356812E-15 0.000000E+00 0.981234E-15 eV/A
  | Net torque on center of mass:  -.169935E-14 0.129812E-15 0.188817E-14 eV
 
  Energy and forces in a compact form:
  | Total energy uncorrected      :         -0.125131302171255E+05 eV
  | Total energy corrected        :         -0.125131330380734E+05 eV  <-- do not rely on this value for anything but (periodic) metals
  | Electronic free energy        :         -0.125131358590213E+05 eV
  Total atomic forces (unitary forces cleaned) [eV/Ang]:
  |   1          0.662273913744159E+00          0.134172995179522E+01         -0.152891929926113E+01
  |   2          0.162834546970723E+00         -0.441592041937425E+00          0.832105767005015E-01
  |   3         -0.807919210689571E+00         -0.318337475352606E+00          0.582590862727702E-01
  |   4         -0.678687031960857E-01         -0.214203489203468E+00          0.122064587752228E+01
  |   5         -0.597183931790180E+00         -0.214724429418002E+01         -0.157080352955915E+01
  |   6          0.884287819628478E-01          0.146040505022634E+01          0.130601103634967E+01
  |   7          0.312709362047671E+00          0.465415359480625E+00          0.187111799164322E+00
  |   8          0.380416990687798E+00         -0.995626477252342E+00          0.258109205875688E+01
  |   9          0.168886306519365E+00          0.473449942075881E+00          0.338873554397473E+00
  |  10         -0.348039180863196E+00          0.329593551512632E+00         -0.266245271694743E+01
  |  11         -0.125429240152778E+01          0.104226746700281E+01          0.136458612537087E+01
  |  12         -0.236121670016207E+00          0.229192928362125E+00         -0.136520171627550E+01
  |  13          0.118911154102322E+01         -0.122895670537891E+01          0.402359407665362E+00
  |  14          0.132446884324333E+01          0.646581433073825E+00         -0.237043411709329E+01
  |  15         -0.193939562394381E+00         -0.138338946923727E+00          0.321469957815394E+00
  |  16         -0.740900855366413E+00         -0.386779721009773E+00          0.171024752443654E+01
  |  17          0.424883773388861E+00          0.142626467427734E+01         -0.960023859540064E+00
  |  18          0.217564128920545E+00         -0.366966343800494E+00          0.358056551836479E+00
  |  19         -0.685312672664709E+00         -0.117685486276802E+01          0.525911682388030E+00
 
  ------------------------------------ 
  Start decomposition of the XC Energy 
  ------------------------------------ 
  Hartree-Fock part   :          0.000000000 Ha              0.000000000 eV
  ------------------------------------ 
  X Energy            :        -54.246581038 Ha          -1476.124574447 eV
  C Energy GGA        :         -1.994058729 Ha            -54.261098787 eV
  Total XC Energy     :        -56.240639767 Ha          -1530.385673235 eV
  LDA X and C from self-consistent density 
  X Energy LDA        :        -48.919104009 Ha          -1331.156548584 eV
  C Energy LDA        :         -4.003133631 Ha           -108.930808425 eV
  ------------------------------------ 
  End decomposition of the XC Energy 
  ------------------------------------ 
  Performing Hirshfeld analysis of fragment charges and moments.
  ----------------------------------------------------------------------
  | Atom     1: O
  |   Hirshfeld charge        :     -0.13016408
  |   Free atom volume        :     23.95238533
  |   Hirshfeld volume        :     21.57534843
  |   Hirshfeld dipole vector :     -0.00211118       0.03070884       0.02963739
  |   Hirshfeld dipole moment :      0.04273014
  |   Hirshfeld second moments:      0.09051490      -0.00164636      -0.00218179
  |                                 -0.00164636       0.04565355      -0.02443735
  |                                 -0.00218179      -0.02443735       0.05592479
  ----------------------------------------------------------------------
  | Atom     2: H
  |   Hirshfeld charge        :      0.11584379
  |   Free atom volume        :     10.44207651
  |   Hirshfeld volume        :      9.34479693
  |   Hirshfeld dipole vector :     -0.00687086       0.01402395       0.00293994
  |   Hirshfeld dipole moment :      0.01589098
  |   Hirshfeld second moments:      0.05108901       0.02230765       0.00168643
  |                                  0.02230765       0.03307069       0.01096535
  |                                  0.00168643       0.01096535       0.06620300
  ----------------------------------------------------------------------
  | Atom     3: H
  |   Hirshfeld charge        :      0.13327250
  |   Free atom volume        :     10.44207651
  |   Hirshfeld volume        :     10.98101536
  |   Hirshfeld dipole vector :      0.03406183       0.02000842       0.01687068
  |   Hirshfeld dipole moment :      0.04295538
  |   Hirshfeld second moments:      0.00138883      -0.01044838       0.00608600
  |                                 -0.01044838       0.04462108      -0.00080048
  |                                  0.00608600      -0.00080048       0.04346446
  ----------------------------------------------------------------------
  | Atom     4: H
  |   Hirshfeld charge        :      0.10879957
  |   Free atom volume        :     10.44207651
  |   Hirshfeld volume        :      9.25604920
  |   Hirshfeld dipole vector :     -0.01474097       0.00544779       0.01655269
  |   Hirshfeld dipole moment :      0.02282469
  |   Hirshfeld second moments:      0.06781770       0.00795841       0.01154302
  |                                  0.00795841       0.06768212       0.00380484
  |                                  0.01154302       0.00380484       0.01950300
  ----------------------------------------------------------------------
  | Atom     5: O
  |   Hirshfeld charge        :     -0.24161363
  |   Free atom volume        :     23.95238533
  |   Hirshfeld volume        :     22.23131393
  |   Hirshfeld dipole vector :     -0.02084845       0.02444713      -0.00471744
  |   Hirshfeld dipole moment :      0.03247421
  |   Hirshfeld second moments:      0.02440044       0.04875218      -0.01204403
  |                                  0.04875218       0.02502683       0.00938218
  |                                 -0.01204403       0.00938218       0.04622658
  ----------------------------------------------------------------------
  | Atom     6: H
  |   Hirshfeld charge        :      0.08407356
  |   Free atom volume        :     10.44207651
  |   Hirshfeld volume        :      9.90064499
  |   Hirshfeld dipole vector :      0.01580989       0.03216962       0.01690779
  |   Hirshfeld dipole moment :      0.03963220
  |   Hirshfeld second moments:      0.04229399       0.00910178      -0.00505849
  |                                  0.00910178       0.02515490      -0.01557131
  |                                 -0.00505849      -0.01557131       0.04483298
  ----------------------------------------------------------------------
  | Atom     7: H
  |   Hirshfeld charge        :      0.11731748
  |   Free atom volume        :     10.44207651
  |   Hirshfeld volume        :     10.79858689
  |   Hirshfeld dipole vector :     -0.05794057      -0.04105605       0.00908013
  |   Hirshfeld dipole moment :      0.07159020
  |   Hirshfeld second moments:      0.01969092       0.01349635       0.00587065
  |                                  0.01349635       0.04021346       0.00704035
  |                                  0.00587065       0.00704035       0.04446186
  ----------------------------------------------------------------------
  | Atom     8: O
  |   Hirshfeld charge        :     -0.21443901
  |   Free atom volume        :     23.95238533
  |   Hirshfeld volume        :     21.80133119
  |   Hirshfeld dipole vector :      0.03239416       0.00622957      -0.01542784
  |   Hirshfeld dipole moment :      0.03641714
  |   Hirshfeld second moments:      0.00661892      -0.00094543       0.03481065
  |                                 -0.00094543       0.06243833       0.00208948
  |                                  0.03481065       0.00208948       0.06870044
  ----------------------------------------------------------------------
  | Atom     9: H
  |   Hirshfeld charge        :      0.10276737
  |   Free atom volume        :     10.44207651
  |   Hirshfeld volume        :      9.45109382
  |   Hirshfeld dipole vector :      0.01943485       0.02922656       0.00941036
  |   Hirshfeld dipole moment :      0.03633813
  |   Hirshfeld second moments:      0.03831826      -0.01766625       0.00941512
  |                                 -0.01766625       0.04381540      -0.02085380
  |                                  0.00941512      -0.02085380       0.05944834
  ----------------------------------------------------------------------
  | Atom    10: H
  |   Hirshfeld charge        :      0.12599306
  |   Free atom volume        :     10.44207651
  |   Hirshfeld volume        :      9.99734697
  |   Hirshfeld dipole vector :     -0.01581914       0.01045338      -0.07581114
  |   Hirshfeld dipole moment :      0.07814632
  |   Hirshfeld second moments:      0.04192457       0.00340496       0.01477627
  |                                  0.00340496       0.07009533       0.00486833
  |                                  0.01477627       0.00486833       0.04413491
  ----------------------------------------------------------------------
  | Atom    11: O
  |   Hirshfeld charge        :     -0.19808235
  |   Free atom volume        :     23.95238533
  |   Hirshfeld volume        :     22.09185204
  |   Hirshfeld dipole vector :      0.00718021      -0.00163779      -0.01767597
  |   Hirshfeld dipole moment :      0.01914883
  |   Hirshfeld second moments:      0.02754280      -0.01620420       0.00981444
  |                                 -0.01620420       0.03609851      -0.00905226
  |                                  0.00981444      -0.00905226       0.05524603
  ----------------------------------------------------------------------
  | Atom    12: H
  |   Hirshfeld charge        :      0.08346088
  |   Free atom volume        :     10.44207651
  |   Hirshfeld volume        :     12.67184169
  |   Hirshfeld dipole vector :      0.01967299      -0.01434542       0.02742510
  |   Hirshfeld dipole moment :      0.03667361
  |   Hirshfeld second moments:     -0.00284972      -0.00936681       0.00658862
  |                                 -0.00936681       0.00468189      -0.00390215
  |                                  0.00658862      -0.00390215      -0.01668918
  ----------------------------------------------------------------------
  | Atom    13: H
  |   Hirshfeld charge        :      0.09820648
  |   Free atom volume        :     10.44207651
  |   Hirshfeld volume        :     11.44728697
  |   Hirshfeld dipole vector :     -0.02179779       0.03188257      -0.03473619
  |   Hirshfeld dipole moment :      0.05194463
  |   Hirshfeld second moments:      0.00357407       0.00326580       0.00637520
  |                                  0.00326580       0.01204623      -0.00728362
  |                                  0.00637520      -0.00728362       0.03311471
  ----------------------------------------------------------------------
  | Atom    14: O
  |   Hirshfeld charge        :     -0.29551192
  |   Free atom volume        :     23.95238533
  |   Hirshfeld volume        :     22.84972720
  |   Hirshfeld dipole vector :     -0.01987558       0.03840647       0.04481707
  |   Hirshfeld dipole moment :      0.06227893
  |   Hirshfeld second moments:      0.03868878       0.04155542       0.01510329
  |                                  0.04155542      -0.01274399      -0.02257203
  |                                  0.01510329      -0.02257203      -0.00574729
  ----------------------------------------------------------------------
  | Atom    15: H
  |   Hirshfeld charge        :      0.11296336
  |   Free atom volume        :     10.44207651
  |   Hirshfeld volume        :      9.97463554
  |   Hirshfeld dipole vector :      0.06774972       0.05233544       0.02603751
  |   Hirshfeld dipole moment :      0.08948170
  |   Hirshfeld second moments:      0.06218985       0.00766941      -0.00080715
  |                                  0.00766941       0.03551872      -0.01766648
  |                                 -0.00080715      -0.01766648       0.04766093
  ----------------------------------------------------------------------
  | Atom    16: H
  |   Hirshfeld charge        :      0.07289917
  |   Free atom volume        :     10.44207651
  |   Hirshfeld volume        :      9.57204295
  |   Hirshfeld dipole vector :     -0.03117969      -0.01063166       0.02655265
  |   Hirshfeld dipole moment :      0.04231133
  |   Hirshfeld second moments:      0.04517736       0.00737824       0.02799412
  |                                  0.00737824       0.04420511       0.00166633
  |                                  0.02799412       0.00166633       0.03308300
  ----------------------------------------------------------------------
  | Atom    17: O
  |   Hirshfeld charge        :     -0.27063646
  |   Free atom volume        :     23.95238533
  |   Hirshfeld volume        :     22.70059183
  |   Hirshfeld dipole vector :      0.03547411      -0.01325178      -0.02554117
  |   Hirshfeld dipole moment :      0.04567684
  |   Hirshfeld second moments:      0.00156789       0.00960887       0.03142303
  |                                  0.00960887       0.04653779      -0.03070866
  |                                  0.03142303      -0.03070866      -0.01512773
  ----------------------------------------------------------------------
  | Atom    18: H
  |   Hirshfeld charge        :      0.08395954
  |   Free atom volume        :     10.44207651
  |   Hirshfeld volume        :      9.46846268
  |   Hirshfeld dipole vector :      0.04054035      -0.01766392       0.00989416
  |   Hirshfeld dipole moment :      0.04531477
  |   Hirshfeld second moments:      0.03254903       0.02930219      -0.00386212
  |                                  0.02930219       0.05917194      -0.00707557
  |                                 -0.00386212      -0.00707557       0.03988534
  ----------------------------------------------------------------------
  | Atom    19: H
  |   Hirshfeld charge        :      0.11087485
  |   Free atom volume        :     10.44207651
  |   Hirshfeld volume        :      9.97394655
  |   Hirshfeld dipole vector :      0.02849096       0.06889804      -0.03442944
  |   Hirshfeld dipole moment :      0.08212223
  |   Hirshfeld second moments:      0.05693475      -0.00464022       0.01509773
  |                                 -0.00464022       0.05315326      -0.00338285
  |                                  0.01509773      -0.00338285       0.03197169
  ----------------------------------------------------------------------


------------------------------------------------------------------------------
  Final output of selected total energy values:

  The following output summarizes some interesting total energy values
  at the end of a run (AFTER all relaxation, molecular dynamics, etc.).

  | Total energy of the DFT / Hartree-Fock s.c.f. calculation      :         -12513.130217125 eV
  | Final zero-broadening corrected energy (caution - metals only) :         -12513.133038073 eV
  | For reference only, the value of 1 Hartree used in FHI-aims is :             27.211384500 eV

  Before relying on these values, please be sure to understand exactly which
  total energy value is referred to by a given number. Different objects may
  all carry the same name 'total energy'. Definitions:

  Total energy of the DFT / Hartree-Fock s.c.f. calculation:
  | Note that this energy does not include ANY quantities calculated after the
  | s.c.f. cycle, in particular not ANY RPA, MP2, etc. many-body perturbation terms.

  Final zero-broadening corrected energy:
  | For metallic systems only, a broadening of the occupation numbers at the Fermi
  | level can be extrapolated back to zero broadening by an electron-gas inspired
  | formula. For all systems that are not real metals, this value can be
  | meaningless and should be avoided.

------------------------------------------------------------------------------

------------------------------------------------------------
          Leaving FHI-aims.
          Date     :  20150727, Time     :  120112.043

          Computational steps:
          | Number of self-consistency cycles          :           17

          Detailed time accounting                     :  max(cpu_time)    wall_clock(cpu1)
          | Total time                                 :       72.198 s          72.231 s
          | Preparation time                           :        0.172 s           0.691 s
          | Grid partitioning                          :        0.201 s           0.200 s
          | Preloading free-atom quantities on grid    :        0.013 s           0.013 s
          | Free-atom superposition energy             :        0.099 s           0.099 s
          | Total time for integrations                :       29.599 s          29.595 s
          | Total time for solution of K.-S. equations :        1.881 s           1.879 s
          | Total time for density & force components  :       27.666 s          27.666 s
          | Total time for mixing                      :        0.283 s           0.285 s
          | Total time for Hartree multipole update    :        0.115 s           0.111 s
          | Total time for Hartree multipole sum       :       11.229 s          11.234 s
          | Total time for total energy evaluation     :        0.005 s           0.006 s
          | Total time for scaled ZORA corrections     :        0.000 s           0.000 s
          | Total time for TS (2009) vdW correction    :        0.079 s           0.080 s

          Have a nice day.
------------------------------------------------------------
