  MPI-parallelism will be employed.
------------------------------------------------------------
          Invoking FHI-aims ...
          Version 081213
          Compiled on 2013/08/29 at 17:41:06 on host generoso.

          When using FHI-aims, please cite the following reference:

          Volker Blum, Ralf Gehrke, Felix Hanke, Paula Havu,
          Ville Havu, Xinguo Ren, Karsten Reuter, and Matthias Scheffler,
          'Ab Initio Molecular Simulations with Numeric Atom-Centered Orbitals: FHI-aims',
          Computer Physics Communications 180, 2175-2196 (2009)

          For any questions about FHI-aims, please visit the aimsclub website
          with its forums and wiki. Contributions to both the forums and the
          wiki are warmly encouraged - they are for you, and everyone is welcome there.

------------------------------------------------------------

  Date     :  20150727, Time     :  115105.157
  Time zero on CPU 1             :   0.419930000000000E-01  s.
  Internal wall clock time zero  :           207229865.157  s.

  Using        8 parallel tasks.
  Task        0 on host gen59 reporting.
  Task        1 on host gen59 reporting.
  Task        2 on host gen59 reporting.
  Task        3 on host gen59 reporting.
  Task        4 on host gen59 reporting.
  Task        5 on host gen59 reporting.
  Task        6 on host gen59 reporting.
  Task        7 on host gen59 reporting.

  Performing system and environment tests:
  | Environment variable OMP_NUM_THREADS correctly set to 1.
  | Checking for scalapack...
  | No scalapack compiled in.

  Obtaining array dimensions for all initial allocations:
  
  -----------------------------------------------------------------------
  Parsing control.in (first pass over file, find array dimensions only).
  The contents of control.in will be repeated verbatim below
  unless switched off by setting 'verbatim_writeout .false.' .
  in the first line of control.in .
  -----------------------------------------------------------------------
  
  #########################################################################################
  #
  #  Volker Blum, FHI 2008 : Test run input file control.in
  #
  #########################################################################################
  #
  #  Physical model
  #
    xc                 rpbe
    spin               none
    relativistic       atomic_zora scalar
    charge             0.
   vdw_correction_hirshfeld
  #
  #  SCF convergence
  #
    occupation_type    gaussian 0.01
    mixer              pulay
      n_max_pulay        10
      charge_mix_param   0.1
    sc_accuracy_rho    5E-5
    sc_accuracy_eev    5E-3
    sc_accuracy_etot   5E-6
    sc_iter_limit      3000
  #
  #  Eigenvalue solver
  #
    KS_method          lapack
      empty_states       8
      basis_threshold    0.e-5
  #
  #  Efficiency
  #
  #   all previous settings are now default, except stratmann still
  #   undecided. Continue to handle stratmann with care, if at all.
  #
  #  partition_type stratmann
    partition_type rho_r2
  #  hartree_partition_type stratmann
  #
  #  Oprions for large clusters (100's of atoms: memory saving / better scaling)
  #
  # for periodic systems:
  #
    density_update_method orbital
    packed_matrix_format none
  #  k_grid 6 6 6
  #  output k_eigenvalue 1
  #  distributed_spline_storage .true.
  #
  #  Relaxation
  #
  #  relax_geometry   bfgs 5.e-3
    sc_accuracy_forces 5.E-4
    final_forces_cleaned .true.
  #
  #  Output options
  #
  #  output mulliken
    output Hirshfeld
  #  output dipole
  
  #harmonic_length_scale 0.001
  
  ################################################################################
  #
  #  FHI-aims code project
  #  VB, Fritz-Haber Institut, 2007
  #
  #  Suggested "safe" defaults for H atom (to be pasted into control.in file)
  #  Basis constructed for a non-relativistic H2 molecule using the
  #  PW-LDA functional.
  #
  ################################################################################
    species        H
  #     global species definitions
      nucleus             1
      cut_pot             4.0  2.0  1.0
      cut_free_atom       finite 8.0
      logarithmic         0.00010000 100.00  1.0123
      basis_dep_cutoff    1d-4  # 1d-4 is safe default - please check 5d-4 if you wish!
      radial_base         24 7.0
      radial_multiplier   2
      angular_grids       specified
        division   0.2783  110
        division   0.3822  194
        division   0.5626  302
  #      division   0.5922  434
  #      division   0.6227  590
  #      division   0.7206  770
        outer_grid  302
      l_hartree           4
  ################################################################################
  #
  #  Definition of "minimal" basis
  #
  ################################################################################
  #     valence basis states
      valence      1  s   1.
  #     ion occupancy
      ion_occ      1  s   0.5
  ################################################################################
  #
  #  Suggested additional basis functions. For production calculations,
  #  uncomment them one after another (the most important basis functions are
  #  listed first).
  #
  ################################################################################
  #  "First tier" - improvements: -1014.90 meV to -62.69 meV
       hydro 2 s 2.1
       hydro 2 p 3.5
  #  "Second tier" - improvements: -12.89 meV to -1.83 meV
       hydro 1 s 0.85
       hydro 2 p 3.7
       hydro 2 s 1.2
       hydro 3 d 7
  #  "Third tier" - improvements: -0.25 meV to -0.12 meV
  #     hydro 4 f 11.2
  #     hydro 3 p 4.8
  #     hydro 4 d 9
  #     hydro 3 s 3.2
  
  ################################################################################
  #
  #  FHI-aims code project
  #  VB, Fritz-Haber Institut, 2007
  #
  #  Suggested "safe" defaults for O atom (to be pasted into control.in file)
  #  All values have been tested for a non-relativistic, non-spinpolarized O2
  #  molecule using the PW-LDA functional. Validity for PBE is expected.
  #
  #  Constructed for dimers: 1.0 A, 1.208 A, 1.5 A, 2.0 A, 3.0 A
  #
  ################################################################################
    species        O
  #     global species definitions
      nucleus             8
      mass                15.9994
      l_hartree           4
      cut_pot             4.0  2.0  1.0
      cut_free_atom       finite 8.0
      basis_dep_cutoff    1d-4  # 1d-4 is safe default - please check 5d-4 if you wish!
      logarithmic         0.00010000 100.00  1.0123
      radial_base         36 7.0
      radial_multiplier   2
       angular_grids specified
        division   0.4087  110
        division   0.5181  194
        division   0.6184  302
  #      division   0.7315  434
  #      division   0.7934  590
  #      division   0.9656  770
  #      division   1.4041  974
  #      outer_grid 974
        outer_grid 302
  ################################################################################
  #
  #  Definition of "minimal" basis
  #
  ################################################################################
  #     valence basis states
      valence      2  s   2.
      valence      2  p   4.
  #     ion occupancy
      ion_occ      2  s   1.
      ion_occ      2  p   3.
  ################################################################################
  #
  #  Suggested additional basis functions. For production calculations,
  #  uncomment them one after another (the most important basis functions are
  #  listed first).
  #
  ################################################################################
  #  "First tier" - improvements: -699.05 meV to -159.38 meV
       hydro 2 p 1.8
       hydro 3 d 7.6
       hydro 3 s 6.4
  #  "Second tier" - improvements: -49.91 meV to -5.39 meV
       hydro 4 f 11.6
       hydro 3 p 6.2
       hydro 3 d 5.6
       hydro 5 g 17.6
       hydro 1 s 0.75
  #  "Third tier" - improvements: -2.83 meV to -0.50 meV
  #     ionic 2 p auto
  #     hydro 4 f 10.8
  #     hydro 4 d 4.7
  #     hydro 2 s 6.8
  #  "Fourth tier" - improvements: -0.40 meV to -0.12 meV
  #     hydro 3 p 5
  #     hydro 3 s 3.3
  #     hydro 5 g 15.6
  #     hydro 4 f 17.6
  #     hydro 4 d 14
  # Further basis functions - -0.08 meV and below
  #     hydro 3 s 2.1
  #     hydro 4 d 11.6
  #     hydro 3 p 16
  #     hydro 2 s 17.2
  
  
  -----------------------------------------------------------------------
  Completed first pass over input file control.in .
  -----------------------------------------------------------------------
  
  
  -----------------------------------------------------------------------
  Parsing geometry.in (first pass over file, find array dimensions only).
  The contents of geometry.in will be repeated verbatim below
  unless switched off by setting 'verbatim_writeout .false.' .
  in the first line of geometry.in .
  -----------------------------------------------------------------------
  
  atom      -4.053030000      0.065001000     -1.525160000  O
  atom      -4.566710000      0.974813000     -1.912820000  H
  atom      -3.067820000      0.330172000     -1.477310000  H
  atom      -4.370360000     -0.049164000     -0.572274000  H
  atom      -4.581760000     -0.256435000      0.939478000  O
  atom      -4.349860000      0.471090000      1.504340000  H
  atom      -5.393870000     -0.726611000      1.228070000  H
  atom      -5.293160000      2.192130000     -2.328800000  O
  atom      -4.829300000      2.988660000     -1.973850000  H
  atom      -5.428570000      2.328640000     -3.235170000  H
  atom      -1.645860000      0.870179000     -1.502250000  O
  atom      -1.568890000      1.501730000     -0.721051000  H
  atom      -0.824432000      0.282220000     -1.377720000  H
  atom      -1.975360000      2.858040000      0.453140000  O
  atom      -1.223550000      3.375850000      0.786238000  H
  atom      -2.537520000      2.567960000      1.156120000  H
  atom      -4.066610000      4.258280000     -0.900064000  O
  atom      -3.224110000      3.876870000     -0.569443000  H
  atom      -3.737450000      5.116530000     -1.322720000  H
  atom      -5.628340000      3.730740000      1.385610000  O
  atom      -6.090650000      4.418470000      1.860350000  H
  atom      -5.158540000      4.200260000      0.615875000  H
  
  -----------------------------------------------------------------------
  Completed first pass over input file geometry.in .
  -----------------------------------------------------------------------
  
 
  Basic array size parameters: 
  | Number of species                 :        2
  | Number of atoms                   :       22
  | Max. basis fn. angular momentum   :        4
  | Max. atomic/ionic basis occupied n:        2
  | Max. number of basis fn. types    :        2
  | Max. radial fns per species/type  :        8
  | Max. logarithmic grid size        :     1301
  | Max. radial integration grid size :       73
  | Max. angular integration grid size:      302
  | Max. angular grid division number :        8
  | Radial grid for Hartree potential :     1301
  | Number of spin channels           :        1

------------------------------------------------------------
          Reading file control.in.
------------------------------------------------------------
  XC: Using RPBE gradient-corrected functionals.
  Spin treatment: No spin polarisation.
  Scalar relativistic treatment of kinetic energy: on-site free-atom approximation to ZORA.
  Charge =   0.000000E+00: Neutral system requested explicitly.
  Using non-empirical van der Waals correction (Hirshfeld partitioning):
  Occupation type: Gaussian broadening, width =   0.100000E-01 eV.
  Using pulay charge density mixing.
  Pulay mixing - number of memorized iterations:   10
  Charge density mixing - mixing parameter:     0.1000
  Convergence accuracy of self-consistent charge density: 0.5000E-04
  Convergence accuracy of sum of eigenvalues: 0.5000E-02
  Convergence accuracy of total energy: 0.5000E-05
  Maximum number of s.-c. iterations  :  3000
  Kohn-Sham eigenvalues and eigenfunctions calculated by lapack diagonalisation (D&C).
  Number of empty states per atom:        8
  Threshold for basis singularities: 0.0000E+00
  Partition function in integrals calculations: rho / r^2
 Using packed matrix format           0
  Convergence accuracy of forces: 0.5000E-03
  Cleaning forces before final output.
  Hirshfeld charge analysis will be performed.
 
  Reading configuration options for species H                   .
  | Found nuclear charge :   1.0000
  | Found cutoff potl. onset [A], width [A], scale factor :    4.00000    2.00000    1.00000
  | Found cutoff specification for free atom: Cutoff potential begins at    8.00000 A.
  | Found logarithmic grid data [bohr] : 0.1000E-03 0.1000E+03 0.1012E+01
  | Threshold for basis-dependent cutoff potential is   0.100000E-03
  | Found data for basic radial integration grid :    24 points, outermost radius =    7.000 A
  | Found multiplier for basic radial grid :   2
  | Found angular grid specification: user-specified.
  | Specified grid contains     4 separate shells.
  | Check grid settings after all constraints further below.
  | Found l_max for Hartree potential  :   4
  | Found free-atom valence shell :  1 s   1.000
  | No ionic wave fns used. Skipping ion_occ.
  | Found hydrogenic basis function :  2 s   2.100
  | Found hydrogenic basis function :  2 p   3.500
  | Found hydrogenic basis function :  1 s   0.850
  | Found hydrogenic basis function :  2 p   3.700
  | Found hydrogenic basis function :  2 s   1.200
  | Found hydrogenic basis function :  3 d   7.000
  Species H                   : Missing cutoff potential type.
  Defaulting to exp(1/x)/(1-x)^2 type cutoff potential.
  Species H : On-site basis accuracy parameter (for Gram-Schmidt orthonormalisation) not specified.
  Using default value basis_acc =  0.1000000E-03.
  Species H                   : Using default innermost maximum threshold i_radial=  2 for radial functions.
  Species H                   : Basic radial grid will be enhanced according to radial_multiplier =   2, to contain    49 grid points.
 
  Reading configuration options for species O                   .
  | Found nuclear charge :   8.0000
  | Found atomic mass :    15.9994000000000      amu
  | Found l_max for Hartree potential  :   4
  | Found cutoff potl. onset [A], width [A], scale factor :    4.00000    2.00000    1.00000
  | Found cutoff specification for free atom: Cutoff potential begins at    8.00000 A.
  | Threshold for basis-dependent cutoff potential is   0.100000E-03
  | Found logarithmic grid data [bohr] : 0.1000E-03 0.1000E+03 0.1012E+01
  | Found data for basic radial integration grid :    36 points, outermost radius =    7.000 A
  | Found multiplier for basic radial grid :   2
  | Found angular grid specification: user-specified.
  | Specified grid contains     4 separate shells.
  | Check grid settings after all constraints further below.
  | Found free-atom valence shell :  2 s   2.000
  | Found free-atom valence shell :  2 p   4.000
  | No ionic wave fns used. Skipping ion_occ.
  | No ionic wave fns used. Skipping ion_occ.
  | Found hydrogenic basis function :  2 p   1.800
  | Found hydrogenic basis function :  3 d   7.600
  | Found hydrogenic basis function :  3 s   6.400
  | Found hydrogenic basis function :  4 f  11.600
  | Found hydrogenic basis function :  3 p   6.200
  | Found hydrogenic basis function :  3 d   5.600
  | Found hydrogenic basis function :  5 g  17.600
  | Found hydrogenic basis function :  1 s   0.750
  Species O                   : Missing cutoff potential type.
  Defaulting to exp(1/x)/(1-x)^2 type cutoff potential.
  Species O : On-site basis accuracy parameter (for Gram-Schmidt orthonormalisation) not specified.
  Using default value basis_acc =  0.1000000E-03.
  Species O                   : Using default innermost maximum threshold i_radial=  2 for radial functions.
  Species O                   : Basic radial grid will be enhanced according to radial_multiplier =   2, to contain    73 grid points.
 
  Finished reading input file 'control.in'. Consistency checks are next.
 
  Target number of points in a grid batch is not set. Defaulting to  100
  Method for grid partitioning is not set. Defaulting to parallel hash+maxmin partitioning.
  Batch size limit is not set. Defaulting to    200
  By default, will store active basis functions for each batch.
  If in need of memory, prune_basis_once .false. can be used to disable this option.
  communication_type for Hartree potential was not specified.
  Defaulting to calc_hartree .
  Pulay mixer: Number of initial linear mixing iterations not set.
  Defaulting to    0 iterations.
  Work space size for distributed Hartree potential not set.
  Defaulting to   0.200000E+03 MB.
  Algorithm-dependent basis array size parameters:
  | n_max_pulay                         :       10
  Geometry relaxation not requested: no relaxation will be performed.
  Handling of forces: Unphysical translation and rotation will be removed from forces.
  No accuracy limit for integral partition fn. given. Defaulting to 0.1000E-14.
  No threshold value for u(r) in integrations given. Defaulting to 0.1000E-05.
  No accuracy for occupation numbers given. Defaulting to 0.1000E-07.
  No threshold value for occupation numbers given. Defaulting to 0.0000E+00.
  No accuracy for fermi level given. Defaulting to 0.1000E-19.
  Maximum # of iterations to find E_F not set. Defaulting to  200.
  Will not use alltoall communication since running on < 1024 CPUs.
  Partitioning for Hartree potential was not defined. Using partition_type for integrals.
  | Reporting present value of keyword multip_moments_threshold  :       0.10000000E-09
  | This value may affect high angular momentum components of the Hartree potential in periodic systems.
  No q(lm)/r^(l+1) cutoff set for long-range Hartree potential.
  | Using default value of  0.100000E-09 .
  | Verify using the multipole_threshold keyword.
  Defaulting to new monopole extrapolation.
  Density update method: Loop over occupied states selected for charge density update.
------------------------------------------------------------


------------------------------------------------------------
          Reading geometry description geometry.in.
------------------------------------------------------------
  Input structure read successfully.
  The structure contains       22 atoms,  and a total of         71.000 electrons.

  Input geometry:
  | No unit cell requested.
  | Atomic structure:
  |       Atom                x [A]            y [A]            z [A]
  |    1: Species O             -4.053030         0.065001        -1.525160
  |    2: Species H             -4.566710         0.974813        -1.912820
  |    3: Species H             -3.067820         0.330172        -1.477310
  |    4: Species H             -4.370360        -0.049164        -0.572274
  |    5: Species O             -4.581760        -0.256435         0.939478
  |    6: Species H             -4.349860         0.471090         1.504340
  |    7: Species H             -5.393870        -0.726611         1.228070
  |    8: Species O             -5.293160         2.192130        -2.328800
  |    9: Species H             -4.829300         2.988660        -1.973850
  |   10: Species H             -5.428570         2.328640        -3.235170
  |   11: Species O             -1.645860         0.870179        -1.502250
  |   12: Species H             -1.568890         1.501730        -0.721051
  |   13: Species H             -0.824432         0.282220        -1.377720
  |   14: Species O             -1.975360         2.858040         0.453140
  |   15: Species H             -1.223550         3.375850         0.786238
  |   16: Species H             -2.537520         2.567960         1.156120
  |   17: Species O             -4.066610         4.258280        -0.900064
  |   18: Species H             -3.224110         3.876870        -0.569443
  |   19: Species H             -3.737450         5.116530        -1.322720
  |   20: Species O             -5.628340         3.730740         1.385610
  |   21: Species H             -6.090650         4.418470         1.860350
  |   22: Species H             -5.158540         4.200260         0.615875
  |

  | The smallest distance between any two atoms is         0.92654057 AA.
  |
  | The first atom of this pair is atom number                      8 .
  | The second atom of this pair is atom number                    10 .

  Structure-dependent array size parameters: 
  | Maximum number of distinct radial functions  :       18
  | Maximum number of basis functions            :      498
  | Number of Kohn-Sham states (occupied + empty):      124
------------------------------------------------------------

------------------------------------------------------------
          Preparing all fixed parts of the calculation.
------------------------------------------------------------
  Determining machine precision:
    2.225073858507201E-308
  Setting up grids for atomic and cluster calculations.

  Creating wave function, potential, and density for free atoms.

  Species: H

  List of occupied orbitals and eigenvalues:
    n    l              occ      energy [Ha]    energy [eV]
    1    0           1.0000        -0.241408        -6.5691


  Species: O

  List of occupied orbitals and eigenvalues:
    n    l              occ      energy [Ha]    energy [eV]
    1    0           2.0000       -18.944147      -515.4965
    2    0           2.0000        -0.883529       -24.0421
    2    1           4.0000        -0.330176        -8.9845

  Creating fixed part of basis set: Ionic, confined, hydrogenic.
 
  H                    hydrogenic:
 
  List of hydrogenic basis orbitals: 
    n    l      effective z      eigenvalue [eV]  inner max. [A]     outer max. [A]     outer radius [A]   
    2    0         2.100000       -14.9965           0.193241           1.317192           5.372934
    2    1         3.500000       -41.6672           0.602363           0.602363           4.056010
    1    0         0.850000        -9.8292           0.624864           0.624864           5.372934
    2    1         3.700000       -46.5653           0.573616           0.573616           3.909951
    2    0         1.200000        -4.5995           0.334977           2.228160           5.505921
    3    2         7.000000       -74.0753           0.680692           0.680692           3.769152
 
 
  O                    hydrogenic:
 
  List of hydrogenic basis orbitals: 
    n    l      effective z      eigenvalue [eV]  inner max. [A]     outer max. [A]     outer radius [A]   
    2    1         1.800000       -11.0118           1.178546           1.178546           5.432516
    3    2         7.600000       -87.3182           0.624117           0.624117           3.541422
    3    0         6.400000       -61.9209           0.061166           1.081887           4.306510
    4    3        11.600000      -114.4238           0.731621           0.731621           3.584982
    3    1         6.200000       -58.1113           0.255677           1.030255           4.306510
    3    2         5.600000       -47.4081           0.847222           0.847222           4.413102
    5    4        17.600000      -168.5799           0.749730           0.749730           3.372413
    1    0         0.750000        -7.6499           0.705275           0.705275           5.366508
 

  Adding cutoff potential to free-atom effective potential.
  Creating atomic-like basis functions for current effective potential.

  Species H                   :

  List of atomic basis orbitals and eigenvalues:
    n    l      energy [Ha]    energy [eV]    outer radius [A]
    1    0        -0.241374        -6.5681       5.372934


  Species O                   :

  List of atomic basis orbitals and eigenvalues:
    n    l      energy [Ha]    energy [eV]    outer radius [A]
    1    0       -18.944147      -515.4965       1.415745
    2    0        -0.883529       -24.0421       5.048305
    2    1        -0.330173        -8.9845       5.301302

  Assembling full basis from fixed parts.
  | Species H :   atomic orbital   1 s accepted.
  | Species H :    hydro orbital   2 s accepted.
  | Species H :    hydro orbital   1 s accepted.
  | Species H :    hydro orbital   2 s accepted.
  | Species H :    hydro orbital   2 p accepted.
  | Species H :    hydro orbital   2 p accepted.
  | Species H :    hydro orbital   3 d accepted.
  | Species O :   atomic orbital   1 s accepted.
  | Species O :    hydro orbital   3 s accepted.
  | Species O :   atomic orbital   2 s accepted.
  | Species O :    hydro orbital   1 s accepted.
  | Species O :    hydro orbital   3 p accepted.
  | Species O :   atomic orbital   2 p accepted.
  | Species O :    hydro orbital   2 p accepted.
  | Species O :    hydro orbital   3 d accepted.
  | Species O :    hydro orbital   3 d accepted.
  | Species O :    hydro orbital   4 f accepted.
  | Species O :    hydro orbital   5 g accepted.
 
  Basis size parameters after reduction:
  | Total number of radial functions:       18
  | Total number of basis functions :      498
 
  Testing on-site integration grid accuracy.
  |  Species  Function  <phi|h_atom|phi> (log., in eV)  <phi|h_atom|phi> (rad., in eV)
           1        1                 -6.5683835025                 -6.5684759159
           1        2                 13.3711789951                 13.3708738703
           1        3                 23.6590910787                 23.6532055418
           1        4                 16.2963827186                 16.1870710655 ***
           1        5                 28.7627214838                 28.7627215090
           1        6                 59.5965249172                 59.5965950857
           1        7                 60.2220506392                 60.2220503827
           2        8               -515.4964576505               -515.4964530710
           2        9                 15.3030791347                 15.3030722972
           2       10                -21.7296094581                -21.7296135470
           2       11                 14.2969371730                 14.2969701621
           2       12                 21.0679693190                 21.0679697493
           2       13                 -2.3833606469                 -2.3833613176
           2       14                 13.7067136422                 13.7066766629
           2       15                 45.8013116808                 45.8013116965
           2       16                 52.2309815402                 52.2309831494
           2       17                 85.4120732416                 85.4120732763
           2       18                142.1019167745                142.1019167817
 * Note: Onsite integrals marked "***" above are less accurate than
 * onsite_accuracy_threshold =    0.03000 eV. Usually, this is harmless.
 * When in doubt, tighten the "radial" and/or "radial_multiplier" flags to check.

  Preparing densities etc. for the partition functions (integrals / Hartree potential).

  Preparations completed.
  max(cpu_time)          :      0.171 s.
  Wall clock time (cpu1) :      0.546 s.
------------------------------------------------------------

------------------------------------------------------------
          Begin self-consistency loop: Initialization.

          Date     :  20150727, Time     :  115105.720
------------------------------------------------------------

  Initializing index lists of integration centers etc. from given atomic structure:
  | Number of centers in hartree potential         :        22
  | Number of centers in hartree multipole         :        22
  | Number of centers in electron density summation:        22
  | Number of centers in basis integrals           :        22
  | Number of centers in integrals                 :        22
  Partitioning the integration grid into batches with parallel hashing+maxmin method.
  | Number of batches:     2836
  | Maximal batch size:     181
  | Minimal batch size:      55
  | Average batch size:     101.195
  | Standard deviation of batch sizes:      34.561

  Integration load balanced across     8 MPI tasks.
  Work distribution over tasks is as follows:
  Task     0 has      35907 integration points.
  Task     1 has      35892 integration points.
  Task     2 has      35906 integration points.
  Task     3 has      35925 integration points.
  Task     4 has      35775 integration points.
  Task     5 has      35809 integration points.
  Task     6 has      35893 integration points.
  Task     7 has      35881 integration points.
  Initializing partition tables, free-atom densities, potentials, etc. across the integration grid (initialize_grid_storage).
  | Net number of integration points:   286988
  | of which are non-zero points    :   286393
  Obtaining max. number of non-zero basis functions in each batch (get_n_compute_maxes).
  | Maximal number of non-zero basis functions:      488 in task     0
  | Maximal number of non-zero basis functions:      492 in task     1
  | Maximal number of non-zero basis functions:      492 in task     2
  | Maximal number of non-zero basis functions:      491 in task     3
  | Maximal number of non-zero basis functions:      493 in task     4
  | Maximal number of non-zero basis functions:      492 in task     5
  | Maximal number of non-zero basis functions:      492 in task     6
  | Maximal number of non-zero basis functions:      493 in task     7
  Integrating Hamiltonian matrix: batch-based integration.
  Time summed over all CPUs for integration: real work       17.133 s, elapsed       17.550 s
  Integrating overlap matrix.
  Time summed over all CPUs for integration: real work        9.477 s, elapsed        9.630 s

  Updating Kohn-Sham eigenvalues, eigenvectors, occupation numbers, and Fermi level.
  Solving generalized eigenproblem
  Updating Kohn-Sham eigenvalues and eigenfunctions.
  Transforming overlap matrix and checking for singularities.
  Overlap matrix is nonsingular:
  | Lowest eigenvalue:  0.181224E-03
  Solving real generalised eigenvalue problem by standard LAPACK (fast)
  Determining occupation numbers for Kohn-Sham eigenstates.
  | Chemical potential (Fermi level) in eV                 : -.28402462E+01
  | Error in electron count due to remaining E_F inaccuracy: 0.11583552E-08
  | Maximum occupation number of highest empty state:  0.00E+00

  Writing Kohn-Sham eigenvalues.

  State    Occupation    Eigenvalue [Ha]    Eigenvalue [eV]
      1       2.00000         -19.065404         -518.79604
      2       2.00000         -19.064977         -518.78442
      3       2.00000         -19.059420         -518.63321
      4       2.00000         -19.059149         -518.62584
      5       2.00000         -19.045460         -518.25332
      6       2.00000         -19.044649         -518.23127
      7       2.00000         -19.042597         -518.17542
      8       2.00000          -1.132202          -30.80879
      9       2.00000          -1.117905          -30.41975
     10       2.00000          -1.111750          -30.25225
     11       2.00000          -1.104176          -30.04615
     12       2.00000          -1.093458          -29.75450
     13       2.00000          -1.086092          -29.55406
     14       2.00000          -1.081594          -29.43166
     15       2.00000          -0.654231          -17.80253
     16       2.00000          -0.652906          -17.76648
     17       2.00000          -0.650952          -17.71331
     18       2.00000          -0.647771          -17.62675
     19       2.00000          -0.627355          -17.07120
     20       2.00000          -0.623618          -16.96950
     21       2.00000          -0.610953          -16.62487
     22       2.00000          -0.607300          -16.52547
     23       2.00000          -0.544924          -14.82814
     24       2.00000          -0.525079          -14.28813
     25       2.00000          -0.513075          -13.96147
     26       2.00000          -0.507886          -13.82029
     27       2.00000          -0.501711          -13.65226
     28       2.00000          -0.498202          -13.55675
     29       2.00000          -0.483141          -13.14693
     30       2.00000          -0.453196          -12.33209
     31       2.00000          -0.448753          -12.21119
     32       2.00000          -0.446113          -12.13936
     33       2.00000          -0.438792          -11.94014
     34       2.00000          -0.435904          -11.86155
     35       2.00000          -0.430172          -11.70557
     36       1.00000          -0.104377           -2.84025
     37       0.00000          -0.071260           -1.93908
     38       0.00000          -0.064497           -1.75505
     39       0.00000          -0.059517           -1.61954
     40       0.00000          -0.043128           -1.17356
     41       0.00000          -0.034023           -0.92582
     42       0.00000          -0.012768           -0.34745
     43       0.00000           0.006685            0.18191
     44       0.00000           0.023563            0.64119
     45       0.00000           0.029568            0.80459
     46       0.00000           0.038140            1.03785
     47       0.00000           0.042269            1.15020
     48       0.00000           0.048252            1.31299
     49       0.00000           0.052222            1.42102
     50       0.00000           0.064562            1.75681
     51       0.00000           0.067229            1.82941
     52       0.00000           0.077339            2.10449
     53       0.00000           0.084486            2.29897
     54       0.00000           0.090403            2.46000
     55       0.00000           0.094750            2.57828
     56       0.00000           0.098846            2.68974
     57       0.00000           0.104469            2.84275
     58       0.00000           0.111751            3.04090
     59       0.00000           0.118777            3.23208
     60       0.00000           0.121313            3.30108
     61       0.00000           0.127008            3.45608
     62       0.00000           0.129890            3.53450
     63       0.00000           0.134490            3.65965
     64       0.00000           0.139254            3.78929
     65       0.00000           0.142790            3.88552
     66       0.00000           0.151564            4.12426
     67       0.00000           0.159483            4.33976
     68       0.00000           0.174358            4.74453
     69       0.00000           0.180684            4.91667
     70       0.00000           0.185291            5.04203
     71       0.00000           0.198268            5.39515
     72       0.00000           0.210539            5.72907
     73       0.00000           0.217935            5.93031
     74       0.00000           0.230680            6.27712
     75       0.00000           0.238199            6.48173
     76       0.00000           0.243766            6.63322
     77       0.00000           0.272564            7.41684
     78       0.00000           0.273851            7.45186
     79       0.00000           0.291036            7.91949
     80       0.00000           0.292596            7.96194
     81       0.00000           0.303298            8.25315
     82       0.00000           0.309850            8.43146
     83       0.00000           0.324344            8.82586
     84       0.00000           0.334947            9.11438
     85       0.00000           0.338329            9.20639
     86       0.00000           0.350358            9.53372
     87       0.00000           0.356155            9.69147
     88       0.00000           0.364489            9.91825
     89       0.00000           0.375679           10.22274
     90       0.00000           0.382203           10.40028
     91       0.00000           0.384382           10.45958
     92       0.00000           0.397919           10.82794
     93       0.00000           0.413528           11.25267
     94       0.00000           0.421530           11.47043
     95       0.00000           0.432109           11.75827
     96       0.00000           0.434007           11.80994
     97       0.00000           0.446831           12.15888
     98       0.00000           0.452829           12.32212
     99       0.00000           0.459112           12.49308
    100       0.00000           0.466496           12.69401
    101       0.00000           0.479313           13.04278
    102       0.00000           0.491636           13.37809
    103       0.00000           0.507271           13.80354
    104       0.00000           0.517430           14.07998
    105       0.00000           0.525052           14.28738
    106       0.00000           0.543288           14.78361
    107       0.00000           0.547924           14.90977
    108       0.00000           0.571772           15.55870
    109       0.00000           0.577951           15.72685
    110       0.00000           0.590348           16.06419
    111       0.00000           0.612439           16.66531
    112       0.00000           0.634111           17.25504
    113       0.00000           0.645956           17.57735
    114       0.00000           0.666893           18.14707
    115       0.00000           0.684294           18.62058
    116       0.00000           0.700826           19.07044
    117       0.00000           0.721153           19.62357
    118       0.00000           0.739315           20.11779
    119       0.00000           0.759261           20.66055
    120       0.00000           0.771721           20.99959
    121       0.00000           0.775723           21.10850
    122       0.00000           0.796851           21.68342
    123       0.00000           0.818459           22.27139
    124       0.00000           0.821539           22.35521

  Highest occupied state (VBM) at     -2.84024617 eV
  | Occupation number:      1.00000000

  Lowest unoccupied state (CBM) at    -1.93908161 eV
  | Occupation number:      0.00000000

  Overall HOMO-LUMO gap:      0.90116456 eV.
  Calculating total energy contributions from superposition of free atom densities.

  Total energy components:
  | Sum of eigenvalues            :        -304.92610985 Ha       -8297.46161930 eV
  | XC energy correction          :         -64.25103858 Ha       -1748.35971535 eV
  | XC potential correction       :          82.12666574 Ha        2234.78027921 eV
  | Free-atom electrostatic energy:        -249.73614984 Ha       -6795.66639686 eV
  | Hartree energy correction     :           0.00000000 Ha           0.00000000 eV
  | van der Waals energy corr.    :           0.00000000 Ha           0.00000000 eV
  | Entropy correction            :          -0.00010367 Ha          -0.00282095 eV
  | ---------------------------
  | Total energy                  :        -536.78663253 Ha      -14606.70745230 eV
  | Total energy, T -> 0          :        -536.78673620 Ha      -14606.71027325 eV  <-- do not rely on this value for anything but (periodic) metals
  | Electronic free energy        :        -536.78683987 Ha      -14606.71309419 eV

  Derived energy quantities:
  | Kinetic energy                :         531.67096353 Ha       14467.50301618 eV
  | Electrostatic energy          :       -1004.20655748 Ha      -27325.85075313 eV
  | Energy correction for multipole
  | error in Hartree potential    :           0.00000000 Ha           0.00000000 eV
  | Sum of eigenvalues per atom                           :        -377.15734633 eV
  | Total energy (T->0) per atom                          :        -663.94137606 eV  <-- do not rely on this value for anything but (periodic) metals
  | Electronic free energy per atom                       :        -663.94150428 eV
  Initialize hartree_potential_storage
  Max. number of atoms included in rho_multipole:           22

  End scf initialization - timings             :  max(cpu_time)    wall_clock(cpu1)
  | Time for scf. initialization               :        4.518 s           4.511 s
  | Boundary condition initialization          :        0.000 s           0.000 s
  | Integration                                :        3.405 s           3.406 s
  | Solution of K.-S. eqns.                    :        0.481 s           0.481 s
  | Grid partitioning                          :        0.201 s           0.202 s
  | Preloading free-atom quantities on grid    :        0.013 s           0.014 s
  | Free-atom superposition energy             :        0.126 s           0.126 s
  | Total energy evaluation                    :        0.001 s           0.000 s
------------------------------------------------------------

------------------------------------------------------------
          Begin self-consistency iteration #    1

  Date     :  20150727, Time     :  115110.231
------------------------------------------------------------
  Evaluating new KS density.
  Integration grid: deviation in total charge (<rho> - N_e) =   1.158384E-09
  Pulay mixing of updated and previous charge densities.

  Evaluating partitioned Hartree potential by multipole expansion.
  | Analytical far-field extrapolation by fixed multipoles:
  | Hartree multipole sum: apparent total charge =  -0.151075E-05
  Summing up the Hartree potential.
  Time summed over all CPUs for potential: real work        5.432 s, elapsed        5.449 s
  | RMS charge density error from multipole expansion :   0.200631E-02

  Integrating Hamiltonian matrix: batch-based integration.
  Time summed over all CPUs for integration: real work       17.116 s, elapsed       17.486 s

  Updating Kohn-Sham eigenvalues, eigenvectors, occupation numbers, and Fermi level.
  Solving generalized eigenproblem
  Updating Kohn-Sham eigenvalues and eigenfunctions.
  Solving real generalised eigenvalue problem by standard LAPACK (fast)
  Determining occupation numbers for Kohn-Sham eigenstates.
  | Chemical potential (Fermi level) in eV                 : -.25688943E+01
  | Error in electron count due to remaining E_F inaccuracy: 0.00000000E+00
  | Maximum occupation number of highest empty state:  0.00E+00

  Writing Kohn-Sham eigenvalues.

  State    Occupation    Eigenvalue [Ha]    Eigenvalue [eV]
      1       2.00000         -19.004522         -517.13936
      2       2.00000         -18.993702         -516.84493
      3       2.00000         -18.986736         -516.65536
      4       2.00000         -18.985296         -516.61619
      5       2.00000         -18.974366         -516.31877
      6       2.00000         -18.973198         -516.28698
      7       2.00000         -18.959036         -515.90162
      8       2.00000          -1.100426          -29.94412
      9       2.00000          -1.083465          -29.48258
     10       2.00000          -1.075601          -29.26859
     11       2.00000          -1.069307          -29.09731
     12       2.00000          -1.055438          -28.71993
     13       2.00000          -1.046979          -28.48976
     14       2.00000          -1.043082          -28.38369
     15       2.00000          -0.623852          -16.97587
     16       2.00000          -0.622833          -16.94814
     17       2.00000          -0.620399          -16.88191
     18       2.00000          -0.618958          -16.84270
     19       2.00000          -0.600174          -16.33156
     20       2.00000          -0.586500          -15.95947
     21       2.00000          -0.579262          -15.76251
     22       2.00000          -0.576294          -15.68177
     23       2.00000          -0.512356          -13.94192
     24       2.00000          -0.490205          -13.33916
     25       2.00000          -0.477494          -12.99326
     26       2.00000          -0.472818          -12.86603
     27       2.00000          -0.464737          -12.64615
     28       2.00000          -0.456287          -12.41621
     29       2.00000          -0.449737          -12.23796
     30       2.00000          -0.417232          -11.35346
     31       2.00000          -0.411295          -11.19189
     32       2.00000          -0.409485          -11.14266
     33       2.00000          -0.401208          -10.91743
     34       2.00000          -0.399912          -10.88217
     35       2.00000          -0.383660          -10.43991
     36       1.00000          -0.094405           -2.56889
     37       0.00000          -0.062409           -1.69824
     38       0.00000          -0.056295           -1.53186
     39       0.00000          -0.050962           -1.38674
     40       0.00000          -0.033984           -0.92476
     41       0.00000          -0.026481           -0.72058
     42       0.00000          -0.005329           -0.14500
     43       0.00000           0.016674            0.45373
     44       0.00000           0.033904            0.92257
     45       0.00000           0.040051            1.08984
     46       0.00000           0.047925            1.30410
     47       0.00000           0.051404            1.39877
     48       0.00000           0.056840            1.54670
     49       0.00000           0.061270            1.66725
     50       0.00000           0.072358            1.96897
     51       0.00000           0.075694            2.05975
     52       0.00000           0.086224            2.34628
     53       0.00000           0.093193            2.53592
     54       0.00000           0.100757            2.74173
     55       0.00000           0.105781            2.87846
     56       0.00000           0.110747            3.01357
     57       0.00000           0.119326            3.24704
     58       0.00000           0.121703            3.31171
     59       0.00000           0.130910            3.56223
     60       0.00000           0.132188            3.59703
     61       0.00000           0.135935            3.69898
     62       0.00000           0.138749            3.77556
     63       0.00000           0.143345            3.90061
     64       0.00000           0.151308            4.11729
     65       0.00000           0.155344            4.22712
     66       0.00000           0.167322            4.55306
     67       0.00000           0.169630            4.61587
     68       0.00000           0.183603            4.99610
     69       0.00000           0.188940            5.14132
     70       0.00000           0.195651            5.32393
     71       0.00000           0.208216            5.66583
     72       0.00000           0.221520            6.02786
     73       0.00000           0.226495            6.16324
     74       0.00000           0.238494            6.48974
     75       0.00000           0.247170            6.72584
     76       0.00000           0.252583            6.87314
     77       0.00000           0.281734            7.66638
     78       0.00000           0.282704            7.69277
     79       0.00000           0.299099            8.13891
     80       0.00000           0.300106            8.16630
     81       0.00000           0.310476            8.44849
     82       0.00000           0.318150            8.65731
     83       0.00000           0.333146            9.06536
     84       0.00000           0.343183            9.33848
     85       0.00000           0.346665            9.43322
     86       0.00000           0.358804            9.76355
     87       0.00000           0.364604            9.92139
     88       0.00000           0.373364           10.15976
     89       0.00000           0.385192           10.48162
     90       0.00000           0.390771           10.63342
     91       0.00000           0.392772           10.68787
     92       0.00000           0.407439           11.08698
     93       0.00000           0.422357           11.49292
     94       0.00000           0.431294           11.73610
     95       0.00000           0.441397           12.01103
     96       0.00000           0.444302           12.09007
     97       0.00000           0.456209           12.41407
     98       0.00000           0.464262           12.63320
     99       0.00000           0.469325           12.77099
    100       0.00000           0.477203           12.98535
    101       0.00000           0.490457           13.34602
    102       0.00000           0.501386           13.64341
    103       0.00000           0.518812           14.11760
    104       0.00000           0.527790           14.36190
    105       0.00000           0.537665           14.63062
    106       0.00000           0.556053           15.13097
    107       0.00000           0.559416           15.22249
    108       0.00000           0.583853           15.88746
    109       0.00000           0.589461           16.04005
    110       0.00000           0.601371           16.36413
    111       0.00000           0.624251           16.98674
    112       0.00000           0.646095           17.58113
    113       0.00000           0.659294           17.94030
    114       0.00000           0.678118           18.45252
    115       0.00000           0.696552           18.95413
    116       0.00000           0.713782           19.42300
    117       0.00000           0.734076           19.97522
    118       0.00000           0.752127           20.46642
    119       0.00000           0.771417           20.99133
    120       0.00000           0.783675           21.32489
    121       0.00000           0.788938           21.46810
    122       0.00000           0.806915           21.95728
    123       0.00000           0.828330           22.54000
    124       0.00000           0.835099           22.72419

  Highest occupied state (VBM) at     -2.56889425 eV
  | Occupation number:      1.00000000

  Lowest unoccupied state (CBM) at    -2.56889425 eV
  | Occupation number:      1.00000000

  Overall HOMO-LUMO gap:      0.00000000 eV.

  Total energy components:
  | Sum of eigenvalues            :        -301.94610798 Ha       -8216.37164251 eV
  | XC energy correction          :         -64.56603919 Ha       -1756.93131805 eV
  | XC potential correction       :          82.53759151 Ha        2245.96213818 eV
  | Free-atom electrostatic energy:        -249.73614984 Ha       -6795.66639686 eV
  | Hartree energy correction     :          -2.90735804 Ha         -79.11323763 eV
  | van der Waals energy corr.    :           0.00000000 Ha           0.00000000 eV
  | Entropy correction            :          -0.00010367 Ha          -0.00282095 eV
  | ---------------------------
  | Total energy                  :        -536.61806355 Ha      -14602.12045686 eV
  | Total energy, T -> 0          :        -536.61816722 Ha      -14602.12327781 eV  <-- do not rely on this value for anything but (periodic) metals
  | Electronic free energy        :        -536.61827088 Ha      -14602.12609876 eV

  Derived energy quantities:
  | Kinetic energy                :         533.58415763 Ha       14519.56367629 eV
  | Electrostatic energy          :       -1005.63618198 Ha      -27364.75281510 eV
  | Energy correction for multipole
  | error in Hartree potential    :           0.00038845 Ha           0.01057015 eV
  | Sum of eigenvalues per atom                           :        -373.47143830 eV
  | Total energy (T->0) per atom                          :        -663.73287626 eV  <-- do not rely on this value for anything but (periodic) metals
  | Electronic free energy per atom                       :        -663.73300449 eV

  Self-consistency convergence accuracy:
  | Change of charge density      : 0.7579E+00
  | Change of sum of eigenvalues  : 0.8109E+02 eV
  | Change of total energy        : 0.4587E+01 eV

  End self-consistency iteration #     1       :  max(cpu_time)    wall_clock(cpu1)
  | Time for this iteration                    :        4.393 s           4.393 s
  | Charge density update                      :        1.380 s           1.379 s
  | Density mixing                             :        0.005 s           0.004 s
  | Hartree multipole update                   :        0.007 s           0.007 s
  | Hartree multipole summation                :        0.683 s           0.682 s
  | Integration                                :        2.189 s           2.189 s
  | Solution of K.-S. eqns.                    :        0.128 s           0.128 s
  | Total energy evaluation                    :        0.000 s           0.001 s
------------------------------------------------------------

------------------------------------------------------------
          Begin self-consistency iteration #    2

  Date     :  20150727, Time     :  115114.624
------------------------------------------------------------
  Evaluating new KS density.
  Integration grid: deviation in total charge (<rho> - N_e) =   7.105427E-14
  Pulay mixing of updated and previous charge densities.

  Evaluating partitioned Hartree potential by multipole expansion.
  | Analytical far-field extrapolation by fixed multipoles:
  | Hartree multipole sum: apparent total charge =  -0.402837E-05
  Summing up the Hartree potential.
  Time summed over all CPUs for potential: real work        5.433 s, elapsed        5.448 s
  | RMS charge density error from multipole expansion :   0.825561E-02

  Integrating Hamiltonian matrix: batch-based integration.
  Time summed over all CPUs for integration: real work       17.098 s, elapsed       17.449 s

  Updating Kohn-Sham eigenvalues, eigenvectors, occupation numbers, and Fermi level.
  Solving generalized eigenproblem
  Updating Kohn-Sham eigenvalues and eigenfunctions.
  Solving real generalised eigenvalue problem by standard LAPACK (fast)
  Determining occupation numbers for Kohn-Sham eigenstates.
  | Chemical potential (Fermi level) in eV                 : -.19341978E+01
  | Error in electron count due to remaining E_F inaccuracy: 0.66235231E-08
  | Maximum occupation number of highest empty state:  0.00E+00

  Highest occupied state (VBM) at     -1.93419779 eV
  | Occupation number:      1.00000001

  Lowest unoccupied state (CBM) at    -1.14787541 eV
  | Occupation number:      0.00000000

  Overall HOMO-LUMO gap:      0.78632238 eV.

  Total energy components:
  | Sum of eigenvalues            :        -294.62644721 Ha       -8017.19353896 eV
  | XC energy correction          :         -65.38081337 Ha       -1779.10245144 eV
  | XC potential correction       :          83.59823239 Ha        2274.82364522 eV
  | Free-atom electrostatic energy:        -249.73614984 Ha       -6795.66639686 eV
  | Hartree energy correction     :         -10.27828189 Ha        -279.68628044 eV
  | van der Waals energy corr.    :           0.00000000 Ha           0.00000000 eV
  | Entropy correction            :          -0.00010367 Ha          -0.00282095 eV
  | ---------------------------
  | Total energy                  :        -536.42345991 Ha      -14596.82502248 eV
  | Total energy, T -> 0          :        -536.42356358 Ha      -14596.82784343 eV  <-- do not rely on this value for anything but (periodic) metals
  | Electronic free energy        :        -536.42366725 Ha      -14596.83066438 eV

  Derived energy quantities:
  | Kinetic energy                :         537.67711558 Ha       14630.93872887 eV
  | Electrostatic energy          :       -1008.71976212 Ha      -27448.66129991 eV
  | Energy correction for multipole
  | error in Hartree potential    :           0.00022721 Ha           0.00618263 eV
  | Sum of eigenvalues per atom                           :        -364.41788813 eV
  | Total energy (T->0) per atom                          :        -663.49217470 eV  <-- do not rely on this value for anything but (periodic) metals
  | Electronic free energy per atom                       :        -663.49230293 eV

  Self-consistency convergence accuracy:
  | Change of charge density      : 0.5771E+00
  | Change of sum of eigenvalues  : 0.1992E+03 eV
  | Change of total energy        : 0.5295E+01 eV

  End self-consistency iteration #     2       :  max(cpu_time)    wall_clock(cpu1)
  | Time for this iteration                    :        4.380 s           4.380 s
  | Charge density update                      :        1.370 s           1.370 s
  | Density mixing                             :        0.008 s           0.008 s
  | Hartree multipole update                   :        0.007 s           0.008 s
  | Hartree multipole summation                :        0.682 s           0.682 s
  | Integration                                :        2.185 s           2.184 s
  | Solution of K.-S. eqns.                    :        0.127 s           0.127 s
  | Total energy evaluation                    :        0.001 s           0.000 s
------------------------------------------------------------

------------------------------------------------------------
          Begin self-consistency iteration #    3

  Date     :  20150727, Time     :  115119.004
------------------------------------------------------------
  Evaluating new KS density.
  Integration grid: deviation in total charge (<rho> - N_e) =   6.623566E-09
  Pulay mixing of updated and previous charge densities.

  Evaluating partitioned Hartree potential by multipole expansion.
  | Analytical far-field extrapolation by fixed multipoles:
  | Hartree multipole sum: apparent total charge =  -0.268441E-05
  Summing up the Hartree potential.
  Time summed over all CPUs for potential: real work        5.433 s, elapsed        5.448 s
  | RMS charge density error from multipole expansion :   0.169657E-01

  Integrating Hamiltonian matrix: batch-based integration.
  Time summed over all CPUs for integration: real work       17.099 s, elapsed       17.464 s

  Updating Kohn-Sham eigenvalues, eigenvectors, occupation numbers, and Fermi level.
  Solving generalized eigenproblem
  Updating Kohn-Sham eigenvalues and eigenfunctions.
  Solving real generalised eigenvalue problem by standard LAPACK (fast)
  Determining occupation numbers for Kohn-Sham eigenstates.
  | Chemical potential (Fermi level) in eV                 : -.18585109E+01
  | Error in electron count due to remaining E_F inaccuracy: -.20889956E-11
  | Maximum occupation number of highest empty state:  0.00E+00

  Highest occupied state (VBM) at     -7.06953486 eV
  | Occupation number:      2.00000000

  Lowest unoccupied state (CBM) at    -1.85851091 eV
  | Occupation number:      1.00000000

  Overall HOMO-LUMO gap:      5.21102395 eV.

  Total energy components:
  | Sum of eigenvalues            :        -294.98776805 Ha       -8027.02557916 eV
  | XC energy correction          :         -65.39434740 Ha       -1779.47073127 eV
  | XC potential correction       :          83.60324929 Ha        2274.96016199 eV
  | Free-atom electrostatic energy:        -249.73614984 Ha       -6795.66639686 eV
  | Hartree energy correction     :          -9.90576103 Ha        -269.54947222 eV
  | van der Waals energy corr.    :           0.00000000 Ha           0.00000000 eV
  | Entropy correction            :          -0.00010367 Ha          -0.00282095 eV
  | ---------------------------
  | Total energy                  :        -536.42077703 Ha      -14596.75201751 eV
  | Total energy, T -> 0          :        -536.42088070 Ha      -14596.75483846 eV  <-- do not rely on this value for anything but (periodic) metals
  | Electronic free energy        :        -536.42098436 Ha      -14596.75765941 eV

  Derived energy quantities:
  | Kinetic energy                :         535.13657067 Ha       14561.80698463 eV
  | Electrostatic energy          :       -1006.16300030 Ha      -27379.08827087 eV
  | Energy correction for multipole
  | error in Hartree potential    :          -0.00669410 Ha          -0.18215575 eV
  | Sum of eigenvalues per atom                           :        -364.86479905 eV
  | Total energy (T->0) per atom                          :        -663.48885629 eV  <-- do not rely on this value for anything but (periodic) metals
  | Electronic free energy per atom                       :        -663.48898452 eV

  Self-consistency convergence accuracy:
  | Change of charge density      : 0.2747E+00
  | Change of sum of eigenvalues  : -.9832E+01 eV
  | Change of total energy        : 0.7300E-01 eV

  End self-consistency iteration #     3       :  max(cpu_time)    wall_clock(cpu1)
  | Time for this iteration                    :        4.381 s           4.382 s
  | Charge density update                      :        1.367 s           1.367 s
  | Density mixing                             :        0.010 s           0.010 s
  | Hartree multipole update                   :        0.008 s           0.007 s
  | Hartree multipole summation                :        0.682 s           0.682 s
  | Integration                                :        2.187 s           2.186 s
  | Solution of K.-S. eqns.                    :        0.127 s           0.128 s
  | Total energy evaluation                    :        0.000 s           0.000 s
------------------------------------------------------------

------------------------------------------------------------
          Begin self-consistency iteration #    4

  Date     :  20150727, Time     :  115123.386
------------------------------------------------------------
  Evaluating new KS density.
  Integration grid: deviation in total charge (<rho> - N_e) =  -2.046363E-12
  Pulay mixing of updated and previous charge densities.

  Evaluating partitioned Hartree potential by multipole expansion.
  | Analytical far-field extrapolation by fixed multipoles:
  | Hartree multipole sum: apparent total charge =  -0.293184E-05
  Summing up the Hartree potential.
  Time summed over all CPUs for potential: real work        5.433 s, elapsed        5.449 s
  | RMS charge density error from multipole expansion :   0.206123E-01

  Integrating Hamiltonian matrix: batch-based integration.
  Time summed over all CPUs for integration: real work       17.096 s, elapsed       17.453 s

  Updating Kohn-Sham eigenvalues, eigenvectors, occupation numbers, and Fermi level.
  Solving generalized eigenproblem
  Updating Kohn-Sham eigenvalues and eigenfunctions.
  Solving real generalised eigenvalue problem by standard LAPACK (fast)
  Determining occupation numbers for Kohn-Sham eigenstates.
  | Chemical potential (Fermi level) in eV                 : -.17325112E+01
  | Error in electron count due to remaining E_F inaccuracy: 0.10019647E-08
  | Maximum occupation number of highest empty state:  0.00E+00

  Highest occupied state (VBM) at     -1.73251121 eV
  | Occupation number:      1.00000000

  Lowest unoccupied state (CBM) at    -1.02224733 eV
  | Occupation number:      0.00000000

  Overall HOMO-LUMO gap:      0.71026388 eV.

  Total energy components:
  | Sum of eigenvalues            :        -293.59153048 Ha       -7989.03202183 eV
  | XC energy correction          :         -65.58192308 Ha       -1784.57492511 eV
  | XC potential correction       :          83.84436650 Ha        2281.52129490 eV
  | Free-atom electrostatic energy:        -249.73614984 Ha       -6795.66639686 eV
  | Hartree energy correction     :         -11.34897471 Ha        -308.82131453 eV
  | van der Waals energy corr.    :           0.00000000 Ha           0.00000000 eV
  | Entropy correction            :          -0.00010367 Ha          -0.00282095 eV
  | ---------------------------
  | Total energy                  :        -536.41421161 Ha      -14596.57336342 eV
  | Total energy, T -> 0          :        -536.41431528 Ha      -14596.57618437 eV  <-- do not rely on this value for anything but (periodic) metals
  | Electronic free energy        :        -536.41441895 Ha      -14596.57900532 eV

  Derived energy quantities:
  | Kinetic energy                :         535.26089478 Ha       14565.19001557 eV
  | Electrostatic energy          :       -1006.09318331 Ha      -27377.18845388 eV
  | Energy correction for multipole
  | error in Hartree potential    :          -0.00873690 Ha          -0.23774303 eV
  | Sum of eigenvalues per atom                           :        -363.13781917 eV
  | Total energy (T->0) per atom                          :        -663.48073565 eV  <-- do not rely on this value for anything but (periodic) metals
  | Electronic free energy per atom                       :        -663.48086388 eV

  Self-consistency convergence accuracy:
  | Change of charge density      : 0.1197E+00
  | Change of sum of eigenvalues  : 0.3799E+02 eV
  | Change of total energy        : 0.1787E+00 eV

  End self-consistency iteration #     4       :  max(cpu_time)    wall_clock(cpu1)
  | Time for this iteration                    :        4.382 s           4.382 s
  | Charge density update                      :        1.367 s           1.367 s
  | Density mixing                             :        0.012 s           0.012 s
  | Hartree multipole update                   :        0.008 s           0.007 s
  | Hartree multipole summation                :        0.682 s           0.682 s
  | Integration                                :        2.185 s           2.185 s
  | Solution of K.-S. eqns.                    :        0.128 s           0.129 s
  | Total energy evaluation                    :        0.000 s           0.000 s
------------------------------------------------------------

------------------------------------------------------------
          Begin self-consistency iteration #    5

  Date     :  20150727, Time     :  115127.768
------------------------------------------------------------
  Evaluating new KS density.
  Integration grid: deviation in total charge (<rho> - N_e) =   1.001979E-09
  Pulay mixing of updated and previous charge densities.

  Evaluating partitioned Hartree potential by multipole expansion.
  | Analytical far-field extrapolation by fixed multipoles:
  | Hartree multipole sum: apparent total charge =  -0.296168E-05
  Summing up the Hartree potential.
  Time summed over all CPUs for potential: real work        5.432 s, elapsed        5.448 s
  | RMS charge density error from multipole expansion :   0.214217E-01

  Integrating Hamiltonian matrix: batch-based integration.
  Time summed over all CPUs for integration: real work       17.098 s, elapsed       17.450 s

  Updating Kohn-Sham eigenvalues, eigenvectors, occupation numbers, and Fermi level.
  Solving generalized eigenproblem
  Updating Kohn-Sham eigenvalues and eigenfunctions.
  Solving real generalised eigenvalue problem by standard LAPACK (fast)
  Determining occupation numbers for Kohn-Sham eigenstates.
  | Chemical potential (Fermi level) in eV                 : -.17289814E+01
  | Error in electron count due to remaining E_F inaccuracy: 0.00000000E+00
  | Maximum occupation number of highest empty state:  0.00E+00

  Highest occupied state (VBM) at     -1.72898144 eV
  | Occupation number:      1.00000000

  Lowest unoccupied state (CBM) at    -1.72898144 eV
  | Occupation number:      1.00000000

  Overall HOMO-LUMO gap:      0.00000000 eV.

  Total energy components:
  | Sum of eigenvalues            :        -293.40158044 Ha       -7983.86321831 eV
  | XC energy correction          :         -65.60850928 Ha       -1785.29837243 eV
  | XC potential correction       :          83.87793969 Ha        2282.43486804 eV
  | Free-atom electrostatic energy:        -249.73614984 Ha       -6795.66639686 eV
  | Hartree energy correction     :         -11.54550966 Ha        -314.16930250 eV
  | van der Waals energy corr.    :           0.00000000 Ha           0.00000000 eV
  | Entropy correction            :          -0.00010367 Ha          -0.00282095 eV
  | ---------------------------
  | Total energy                  :        -536.41380952 Ha      -14596.56242205 eV
  | Total energy, T -> 0          :        -536.41391319 Ha      -14596.56524300 eV  <-- do not rely on this value for anything but (periodic) metals
  | Electronic free energy        :        -536.41401686 Ha      -14596.56806395 eV

  Derived energy quantities:
  | Kinetic energy                :         535.28654967 Ha       14565.88812066 eV
  | Electrostatic energy          :       -1006.09184991 Ha      -27377.15217028 eV
  | Energy correction for multipole
  | error in Hartree potential    :          -0.00951815 Ha          -0.25900205 eV
  | Sum of eigenvalues per atom                           :        -362.90287356 eV
  | Total energy (T->0) per atom                          :        -663.48023832 eV  <-- do not rely on this value for anything but (periodic) metals
  | Electronic free energy per atom                       :        -663.48036654 eV

  Self-consistency convergence accuracy:
  | Change of charge density      : 0.3354E-01
  | Change of sum of eigenvalues  : 0.5169E+01 eV
  | Change of total energy        : 0.1094E-01 eV

  End self-consistency iteration #     5       :  max(cpu_time)    wall_clock(cpu1)
  | Time for this iteration                    :        4.386 s           4.386 s
  | Charge density update                      :        1.369 s           1.370 s
  | Density mixing                             :        0.014 s           0.014 s
  | Hartree multipole update                   :        0.007 s           0.007 s
  | Hartree multipole summation                :        0.682 s           0.682 s
  | Integration                                :        2.186 s           2.185 s
  | Solution of K.-S. eqns.                    :        0.127 s           0.127 s
  | Total energy evaluation                    :        0.001 s           0.000 s
------------------------------------------------------------

------------------------------------------------------------
          Begin self-consistency iteration #    6

  Date     :  20150727, Time     :  115132.154
------------------------------------------------------------
  Evaluating new KS density.
  Integration grid: deviation in total charge (<rho> - N_e) =   4.263256E-14
  Pulay mixing of updated and previous charge densities.

  Evaluating partitioned Hartree potential by multipole expansion.
  | Analytical far-field extrapolation by fixed multipoles:
  | Hartree multipole sum: apparent total charge =  -0.294408E-05
  Summing up the Hartree potential.
  Time summed over all CPUs for potential: real work        5.433 s, elapsed        5.447 s
  | RMS charge density error from multipole expansion :   0.216702E-01

  Integrating Hamiltonian matrix: batch-based integration.
  Time summed over all CPUs for integration: real work       17.098 s, elapsed       17.489 s

  Updating Kohn-Sham eigenvalues, eigenvectors, occupation numbers, and Fermi level.
  Solving generalized eigenproblem
  Updating Kohn-Sham eigenvalues and eigenfunctions.
  Solving real generalised eigenvalue problem by standard LAPACK (fast)
  Determining occupation numbers for Kohn-Sham eigenstates.
  | Chemical potential (Fermi level) in eV                 : -.17333585E+01
  | Error in electron count due to remaining E_F inaccuracy: 0.00000000E+00
  | Maximum occupation number of highest empty state:  0.00E+00

  Highest occupied state (VBM) at     -1.73335854 eV
  | Occupation number:      1.00000000

  Lowest unoccupied state (CBM) at    -1.73335854 eV
  | Occupation number:      1.00000000

  Overall HOMO-LUMO gap:      0.00000000 eV.

  Total energy components:
  | Sum of eigenvalues            :        -293.42630878 Ha       -7984.53611071 eV
  | XC energy correction          :         -65.60830198 Ha       -1785.29273168 eV
  | XC potential correction       :          83.87724777 Ha        2282.41603997 eV
  | Free-atom electrostatic energy:        -249.73614984 Ha       -6795.66639686 eV
  | Hartree energy correction     :         -11.52031483 Ha        -313.48371647 eV
  | van der Waals energy corr.    :           0.00000000 Ha           0.00000000 eV
  | Entropy correction            :          -0.00010367 Ha          -0.00282095 eV
  | ---------------------------
  | Total energy                  :        -536.41382767 Ha      -14596.56291575 eV
  | Total energy, T -> 0          :        -536.41393133 Ha      -14596.56573670 eV  <-- do not rely on this value for anything but (periodic) metals
  | Electronic free energy        :        -536.41403500 Ha      -14596.56855764 eV

  Derived energy quantities:
  | Kinetic energy                :         535.24734699 Ha       14564.82136164 eV
  | Electrostatic energy          :       -1006.05287268 Ha      -27376.09154570 eV
  | Energy correction for multipole
  | error in Hartree potential    :          -0.00981662 Ha          -0.26712372 eV
  | Sum of eigenvalues per atom                           :        -362.93345958 eV
  | Total energy (T->0) per atom                          :        -663.48026076 eV  <-- do not rely on this value for anything but (periodic) metals
  | Electronic free energy per atom                       :        -663.48038898 eV

  Self-consistency convergence accuracy:
  | Change of charge density      : 0.8984E-02
  | Change of sum of eigenvalues  : -.6729E+00 eV
  | Change of total energy        : -.4937E-03 eV

  End self-consistency iteration #     6       :  max(cpu_time)    wall_clock(cpu1)
  | Time for this iteration                    :        4.392 s           4.392 s
  | Charge density update                      :        1.369 s           1.369 s
  | Density mixing                             :        0.017 s           0.017 s
  | Hartree multipole update                   :        0.007 s           0.007 s
  | Hartree multipole summation                :        0.682 s           0.682 s
  | Integration                                :        2.190 s           2.190 s
  | Solution of K.-S. eqns.                    :        0.127 s           0.127 s
  | Total energy evaluation                    :        0.001 s           0.000 s
------------------------------------------------------------

------------------------------------------------------------
          Begin self-consistency iteration #    7

  Date     :  20150727, Time     :  115136.546
------------------------------------------------------------
  Evaluating new KS density.
  Integration grid: deviation in total charge (<rho> - N_e) =   5.684342E-14
  Pulay mixing of updated and previous charge densities.

  Evaluating partitioned Hartree potential by multipole expansion.
  | Analytical far-field extrapolation by fixed multipoles:
  | Hartree multipole sum: apparent total charge =  -0.298841E-05
  Summing up the Hartree potential.
  Time summed over all CPUs for potential: real work        5.433 s, elapsed        5.448 s
  | RMS charge density error from multipole expansion :   0.216812E-01

  Integrating Hamiltonian matrix: batch-based integration.
  Time summed over all CPUs for integration: real work       17.093 s, elapsed       17.466 s

  Updating Kohn-Sham eigenvalues, eigenvectors, occupation numbers, and Fermi level.
  Solving generalized eigenproblem
  Updating Kohn-Sham eigenvalues and eigenfunctions.
  Solving real generalised eigenvalue problem by standard LAPACK (fast)
  Determining occupation numbers for Kohn-Sham eigenstates.
  | Chemical potential (Fermi level) in eV                 : -.17461037E+01
  | Error in electron count due to remaining E_F inaccuracy: -.29977798E-09
  | Maximum occupation number of highest empty state:  0.00E+00

  Highest occupied state (VBM) at     -6.29949760 eV
  | Occupation number:      2.00000000

  Lowest unoccupied state (CBM) at    -1.74610373 eV
  | Occupation number:      1.00000000

  Overall HOMO-LUMO gap:      4.55339387 eV.

  Total energy components:
  | Sum of eigenvalues            :        -293.49597692 Ha       -7986.43187704 eV
  | XC energy correction          :         -65.60159037 Ha       -1785.11009925 eV
  | XC potential correction       :          83.86822572 Ha        2282.17053735 eV
  | Free-atom electrostatic energy:        -249.73614984 Ha       -6795.66639686 eV
  | Hartree energy correction     :         -11.44830515 Ha        -311.52423331 eV
  | van der Waals energy corr.    :           0.00000000 Ha           0.00000000 eV
  | Entropy correction            :          -0.00010367 Ha          -0.00282095 eV
  | ---------------------------
  | Total energy                  :        -536.41379655 Ha      -14596.56206910 eV
  | Total energy, T -> 0          :        -536.41390022 Ha      -14596.56489005 eV  <-- do not rely on this value for anything but (periodic) metals
  | Electronic free energy        :        -536.41400389 Ha      -14596.56771100 eV

  Derived energy quantities:
  | Kinetic energy                :         535.28703314 Ha       14565.90127655 eV
  | Electrostatic energy          :       -1006.09923932 Ha      -27377.35324641 eV
  | Energy correction for multipole
  | error in Hartree potential    :          -0.01004463 Ha          -0.27332841 eV
  | Sum of eigenvalues per atom                           :        -363.01963077 eV
  | Total energy (T->0) per atom                          :        -663.48022228 eV  <-- do not rely on this value for anything but (periodic) metals
  | Electronic free energy per atom                       :        -663.48035050 eV

  Self-consistency convergence accuracy:
  | Change of charge density      : 0.6938E-02
  | Change of sum of eigenvalues  : -.1896E+01 eV
  | Change of total energy        : 0.8466E-03 eV

  End self-consistency iteration #     7       :  max(cpu_time)    wall_clock(cpu1)
  | Time for this iteration                    :        4.392 s           4.393 s
  | Charge density update                      :        1.369 s           1.369 s
  | Density mixing                             :        0.018 s           0.019 s
  | Hartree multipole update                   :        0.007 s           0.007 s
  | Hartree multipole summation                :        0.682 s           0.682 s
  | Integration                                :        2.187 s           2.187 s
  | Solution of K.-S. eqns.                    :        0.128 s           0.128 s
  | Total energy evaluation                    :        0.001 s           0.001 s
------------------------------------------------------------

------------------------------------------------------------
          Begin self-consistency iteration #    8

  Date     :  20150727, Time     :  115140.939
------------------------------------------------------------
  Evaluating new KS density.
  Integration grid: deviation in total charge (<rho> - N_e) =  -2.997211E-10
  Pulay mixing of updated and previous charge densities.

  Evaluating partitioned Hartree potential by multipole expansion.
  | Analytical far-field extrapolation by fixed multipoles:
  | Hartree multipole sum: apparent total charge =  -0.298507E-05
  Summing up the Hartree potential.
  Time summed over all CPUs for potential: real work        5.433 s, elapsed        5.450 s
  | RMS charge density error from multipole expansion :   0.217624E-01

  Integrating Hamiltonian matrix: batch-based integration.
  Time summed over all CPUs for integration: real work       17.077 s, elapsed       17.445 s

  Updating Kohn-Sham eigenvalues, eigenvectors, occupation numbers, and Fermi level.
  Solving generalized eigenproblem
  Updating Kohn-Sham eigenvalues and eigenfunctions.
  Solving real generalised eigenvalue problem by standard LAPACK (fast)
  Determining occupation numbers for Kohn-Sham eigenstates.
  | Chemical potential (Fermi level) in eV                 : -.17516508E+01
  | Error in electron count due to remaining E_F inaccuracy: 0.20151845E-08
  | Maximum occupation number of highest empty state:  0.00E+00

  Highest occupied state (VBM) at     -1.75165082 eV
[...]
  | Total energy corrected        :         -0.145967435078883E+05 eV  <-- do not rely on this value for anything but (periodic) metals
  | Electronic free energy        :         -0.145967463288362E+05 eV
  Total atomic forces (unitary forces cleaned) [eV/Ang]:
  |   1         -0.107709349873612E+01          0.123285575293671E+01         -0.118716462772851E+01
  |   2          0.371799329605574E+00         -0.957298413265472E+00          0.304461291158184E+00
  |   3          0.484036539495361E+00         -0.122822960228379E+00         -0.513966450611564E-01
  |   4          0.375598231512097E-02         -0.120731596993730E+00          0.460540043102527E+00
  |   5         -0.275890861474300E+00         -0.160297540474796E+01         -0.110142899853723E+01
  |   6         -0.874270484173754E-01          0.106914220097648E+01          0.114345057190987E+01
  |   7          0.205911451921801E+00          0.492339123666765E+00          0.298637541091550E+00
  |   8          0.367628517674651E+00         -0.752913100249852E+00          0.248711502420839E+01
  |   9          0.468609958641681E-01          0.286389871339938E+00          0.204399821166717E+00
  |  10         -0.325537388765215E+00          0.341200167966904E+00         -0.257375139893973E+01
  |  11          0.177676103422059E+01         -0.425345511700879E+00          0.796448509623315E+00
  |  12         -0.195419942243916E+00         -0.165350562419815E+00         -0.513903360767558E+00
  |  13         -0.136410053054618E+01          0.721500690048857E+00         -0.318739966175156E+00
  |  14          0.723270089501956E+00          0.230364147919471E+00         -0.217754409566059E+01
  |  15          0.200539577714031E+00          0.170109527560405E+00          0.551785951172948E+00
  |  16         -0.832822815178290E+00         -0.387448913365491E+00          0.175148121135352E+01
  |  17          0.484262715412373E+00          0.140610144143923E+01         -0.981707356134919E+00
  |  18          0.210433282632588E+00         -0.319710436367088E+00          0.302392999912796E+00
  |  19         -0.624442389724646E+00         -0.998679739433507E+00          0.441649972290175E+00
  |  20          0.998657914295302E+00          0.691678291232759E-02         -0.133557861705020E+01
  |  21         -0.348783657276061E+00          0.590888053094941E+00          0.361794648799589E+00
  |  22         -0.742399298291416E+00         -0.694531121089855E+00          0.113705748026546E+01
 
  ------------------------------------ 
  Start decomposition of the XC Energy 
  ------------------------------------ 
  Hartree-Fock part   :          0.000000000 Ha              0.000000000 eV
  ------------------------------------ 
  X Energy            :        -63.274047306 Ha          -1721.774430112 eV
  C Energy GGA        :         -2.325802869 Ha            -63.288316127 eV
  Total XC Energy     :        -65.599850174 Ha          -1785.062746239 eV
  LDA X and C from self-consistent density 
  X Energy LDA        :        -57.063757894 Ha          -1552.783857063 eV
  C Energy LDA        :         -4.665999956 Ha           -126.968318882 eV
  ------------------------------------ 
  End decomposition of the XC Energy 
  ------------------------------------ 
  Performing Hirshfeld analysis of fragment charges and moments.
  ----------------------------------------------------------------------
  | Atom     1: O
  |   Hirshfeld charge        :     -0.15508240
  |   Free atom volume        :     23.95238533
  |   Hirshfeld volume        :     21.00020910
  |   Hirshfeld dipole vector :      0.00532442       0.02872231       0.02135313
  |   Hirshfeld dipole moment :      0.03618392
  |   Hirshfeld second moments:      0.08620982      -0.00699719      -0.00689021
  |                                 -0.00699719       0.05533813      -0.02284650
  |                                 -0.00689021      -0.02284650       0.06841950
  ----------------------------------------------------------------------
  | Atom     2: H
  |   Hirshfeld charge        :      0.12126809
  |   Free atom volume        :     10.44207651
  |   Hirshfeld volume        :      8.40239999
  |   Hirshfeld dipole vector :     -0.00563322       0.01556480      -0.00527021
  |   Hirshfeld dipole moment :      0.01737157
  |   Hirshfeld second moments:      0.06976476       0.02584212      -0.00573952
  |                                  0.02584212       0.04286217       0.01559524
  |                                 -0.00573952       0.01559524       0.08610789
  ----------------------------------------------------------------------
  | Atom     3: H
  |   Hirshfeld charge        :      0.10559336
  |   Free atom volume        :     10.44207651
  |   Hirshfeld volume        :      8.76215453
  |   Hirshfeld dipole vector :      0.01671373       0.00681388       0.00383513
  |   Hirshfeld dipole moment :      0.01845226
  |   Hirshfeld second moments:      0.02611989      -0.02008615      -0.00240222
  |                                 -0.02008615       0.07488375       0.00265833
  |                                 -0.00240222       0.00265833       0.07486358
  ----------------------------------------------------------------------
  | Atom     4: H
  |   Hirshfeld charge        :      0.10888619
  |   Free atom volume        :     10.44207651
  |   Hirshfeld volume        :      8.65021395
  |   Hirshfeld dipole vector :     -0.01778517       0.00112968       0.01811285
  |   Hirshfeld dipole moment :      0.02540992
  |   Hirshfeld second moments:      0.08043118       0.00662044       0.00969941
  |                                  0.00662044       0.08032594       0.00599610
  |                                  0.00969941       0.00599610       0.02344200
  ----------------------------------------------------------------------
  | Atom     5: O
  |   Hirshfeld charge        :     -0.22450719
  |   Free atom volume        :     23.95238533
  |   Hirshfeld volume        :     21.98156740
  |   Hirshfeld dipole vector :     -0.03124603       0.02307604      -0.01019384
  |   Hirshfeld dipole moment :      0.04015884
  |   Hirshfeld second moments:      0.02570200       0.04890872      -0.01498292
  |                                  0.04890872       0.03843532       0.01621303
  |                                 -0.01498292       0.01621303       0.05379676
  ----------------------------------------------------------------------
  | Atom     6: H
  |   Hirshfeld charge        :      0.10835330
  |   Free atom volume        :     10.44207651
  |   Hirshfeld volume        :     10.21360481
  |   Hirshfeld dipole vector :      0.00765470       0.05839224       0.02309811
  |   Hirshfeld dipole moment :      0.06325955
  |   Hirshfeld second moments:      0.03487843       0.01918254      -0.01840665
  |                                  0.01918254       0.04011705      -0.01260465
  |                                 -0.01840665      -0.01260465       0.03978893
  ----------------------------------------------------------------------
  | Atom     7: H
  |   Hirshfeld charge        :      0.13329899
  |   Free atom volume        :     10.44207651
  |   Hirshfeld volume        :      9.70654573
  |   Hirshfeld dipole vector :     -0.07011497      -0.04331051       0.00976930
  |   Hirshfeld dipole moment :      0.08299005
  |   Hirshfeld second moments:      0.03878394       0.01318709       0.00105817
  |                                  0.01318709       0.06073617       0.01086570
  |                                  0.00105817       0.01086570       0.06716705
  ----------------------------------------------------------------------
  | Atom     8: O
  |   Hirshfeld charge        :     -0.20504537
  |   Free atom volume        :     23.95238533
  |   Hirshfeld volume        :     21.13545916
  |   Hirshfeld dipole vector :      0.03026872       0.00145918      -0.01371556
  |   Hirshfeld dipole moment :      0.03326321
  |   Hirshfeld second moments:      0.02337486       0.00011366       0.02948610
  |                                  0.00011366       0.07118984       0.00471443
  |                                  0.02948610       0.00471443       0.08453184
  ----------------------------------------------------------------------
  | Atom     9: H
  |   Hirshfeld charge        :      0.11064153
  |   Free atom volume        :     10.44207651
  |   Hirshfeld volume        :      8.74104824
  |   Hirshfeld dipole vector :      0.02008456       0.02983031       0.01411538
  |   Hirshfeld dipole moment :      0.03863264
  |   Hirshfeld second moments:      0.05654339      -0.02131212       0.00115008
  |                                 -0.02131212       0.05009850      -0.01627294
  |                                  0.00115008      -0.01627294       0.07606998
  ----------------------------------------------------------------------
  | Atom    10: H
  |   Hirshfeld charge        :      0.14037778
  |   Free atom volume        :     10.44207651
  |   Hirshfeld volume        :      8.71487493
  |   Hirshfeld dipole vector :     -0.01510162       0.00576413      -0.08828374
  |   Hirshfeld dipole moment :      0.08975134
  |   Hirshfeld second moments:      0.07131199       0.00024876       0.00993210
  |                                  0.00024876       0.08805830       0.00790172
  |                                  0.00993210       0.00790172       0.06912617
  ----------------------------------------------------------------------
  | Atom    11: O
  |   Hirshfeld charge        :     -0.23419541
  |   Free atom volume        :     23.95238533
  |   Hirshfeld volume        :     22.38132570
  |   Hirshfeld dipole vector :     -0.01562271      -0.02206287       0.03418566
  |   Hirshfeld dipole moment :      0.04358324
  |   Hirshfeld second moments:      0.05266368      -0.02024359       0.00795786
  |                                 -0.02024359       0.03185505       0.03661911
  |                                  0.00795786       0.03661911      -0.00842871
  ----------------------------------------------------------------------
  | Atom    12: H
  |   Hirshfeld charge        :      0.08570084
  |   Free atom volume        :     10.44207651
  |   Hirshfeld volume        :      9.99900689
  |   Hirshfeld dipole vector :     -0.00416685       0.02232050       0.03037143
  |   Hirshfeld dipole moment :      0.03792085
  |   Hirshfeld second moments:      0.06088524      -0.00474470      -0.00102751
  |                                 -0.00474470       0.03511594      -0.00312754
  |                                 -0.00102751      -0.00312754       0.00973678
  ----------------------------------------------------------------------
  | Atom    13: H
  |   Hirshfeld charge        :      0.11543936
  |   Free atom volume        :     10.44207651
  |   Hirshfeld volume        :     10.58950298
  |   Hirshfeld dipole vector :      0.05267901      -0.04780159       0.00305250
  |   Hirshfeld dipole moment :      0.07119964
  |   Hirshfeld second moments:      0.03934572       0.00398980      -0.00314594
  |                                  0.00398980       0.04215317       0.01836265
  |                                 -0.00314594       0.01836265       0.03061965
  ----------------------------------------------------------------------
  | Atom    14: O
  |   Hirshfeld charge        :     -0.22617255
  |   Free atom volume        :     23.95238533
  |   Hirshfeld volume        :     22.15547295
  |   Hirshfeld dipole vector :     -0.01229145       0.00436677       0.00188497
  |   Hirshfeld dipole moment :      0.01317959
  |   Hirshfeld second moments:      0.05484498       0.02328944      -0.00588895
  |                                  0.02328944       0.02521659       0.00819152
  |                                 -0.00588895       0.00819152       0.03457344
  ----------------------------------------------------------------------
  | Atom    15: H
  |   Hirshfeld charge        :      0.08758908
  |   Free atom volume        :     10.44207651
  |   Hirshfeld volume        :     12.91997577
  |   Hirshfeld dipole vector :      0.02722642       0.02518793       0.00097426
  |   Hirshfeld dipole moment :      0.03710336
  |   Hirshfeld second moments:     -0.00401524      -0.00059672      -0.01048928
  |                                 -0.00059672      -0.01570596       0.00260135
  |                                 -0.01048928       0.00260135      -0.00087330
  ----------------------------------------------------------------------
  | Atom    16: H
  |   Hirshfeld charge        :      0.09321498
  |   Free atom volume        :     10.44207651
  |   Hirshfeld volume        :     10.78057196
  |   Hirshfeld dipole vector :     -0.05653994      -0.01429399       0.01385043
  |   Hirshfeld dipole moment :      0.05994095
  |   Hirshfeld second moments:      0.04161428       0.01705214       0.00313914
  |                                  0.01705214       0.03181250       0.01168195
  |                                  0.00313914       0.01168195       0.00691008
  ----------------------------------------------------------------------
  | Atom    17: O
  |   Hirshfeld charge        :     -0.21444440
  |   Free atom volume        :     23.95238533
  |   Hirshfeld volume        :     21.54318113
  |   Hirshfeld dipole vector :     -0.00115361      -0.01303370       0.00960377
  |   Hirshfeld dipole moment :      0.01623085
  |   Hirshfeld second moments:      0.04526073       0.00128864       0.00305400
  |                                  0.00128864       0.06475494      -0.01916253
  |                                  0.00305400      -0.01916253       0.03366268
  ----------------------------------------------------------------------
  | Atom    18: H
  |   Hirshfeld charge        :      0.09344483
  |   Free atom volume        :     10.44207651
  |   Hirshfeld volume        :      9.32313680
  |   Hirshfeld dipole vector :      0.03078789      -0.02641374       0.01183144
  |   Hirshfeld dipole moment :      0.04225592
  |   Hirshfeld second moments:      0.03895486       0.01121266      -0.01153188
  |                                  0.01121266       0.06145353       0.00166527
  |                                 -0.01153188       0.00166527       0.04830102
  ----------------------------------------------------------------------
  | Atom    19: H
  |   Hirshfeld charge        :      0.10424366
  |   Free atom volume        :     10.44207651
  |   Hirshfeld volume        :     10.96869531
  |   Hirshfeld dipole vector :      0.01137562       0.04624886      -0.02071646
  |   Hirshfeld dipole moment :      0.05193779
  |   Hirshfeld second moments:      0.03813033      -0.01241455       0.00257214
  |                                 -0.01241455       0.02361101       0.00455950
  |                                  0.00257214       0.00455950       0.02477663
  ----------------------------------------------------------------------
  | Atom    20: O
  |   Hirshfeld charge        :     -0.34003023
  |   Free atom volume        :     23.95238533
  |   Hirshfeld volume        :     23.70691191
  |   Hirshfeld dipole vector :     -0.00538794       0.06843859      -0.01787592
  |   Hirshfeld dipole moment :      0.07093954
  |   Hirshfeld second moments:     -0.04126379      -0.02394016      -0.06283240
  |                                 -0.02394016      -0.03071253       0.01318879
  |                                 -0.06283240       0.01318879      -0.00835701
  ----------------------------------------------------------------------
  | Atom    21: H
  |   Hirshfeld charge        :      0.11095827
  |   Free atom volume        :     10.44207651
  |   Hirshfeld volume        :      8.44571946
  |   Hirshfeld dipole vector :     -0.05990376       0.08321129       0.05597897
  |   Hirshfeld dipole moment :      0.11681705
  |   Hirshfeld second moments:      0.06587877      -0.00145442      -0.02132412
  |                                 -0.00145442       0.06847045      -0.00217787
  |                                 -0.02132412      -0.00217787       0.08412350
  ----------------------------------------------------------------------
  | Atom    22: H
  |   Hirshfeld charge        :      0.08044865
  |   Free atom volume        :     10.44207651
  |   Hirshfeld volume        :      9.22212693
  |   Hirshfeld dipole vector :      0.01736959       0.03539324      -0.04272028
  |   Hirshfeld dipole moment :      0.05813266
  |   Hirshfeld second moments:      0.04203349      -0.02219310       0.00329940
  |                                 -0.02219310       0.06295849       0.01604012
  |                                  0.00329940       0.01604012       0.03190096
  ----------------------------------------------------------------------


------------------------------------------------------------------------------
  Final output of selected total energy values:

  The following output summarizes some interesting total energy values
  at the end of a run (AFTER all relaxation, molecular dynamics, etc.).

  | Total energy of the DFT / Hartree-Fock s.c.f. calculation      :         -14596.740686940 eV
  | Final zero-broadening corrected energy (caution - metals only) :         -14596.743507888 eV
  | For reference only, the value of 1 Hartree used in FHI-aims is :             27.211384500 eV

  Before relying on these values, please be sure to understand exactly which
  total energy value is referred to by a given number. Different objects may
  all carry the same name 'total energy'. Definitions:

  Total energy of the DFT / Hartree-Fock s.c.f. calculation:
  | Note that this energy does not include ANY quantities calculated after the
  | s.c.f. cycle, in particular not ANY RPA, MP2, etc. many-body perturbation terms.

  Final zero-broadening corrected energy:
  | For metallic systems only, a broadening of the occupation numbers at the Fermi
  | level can be extrapolated back to zero broadening by an electron-gas inspired
  | formula. For all systems that are not real metals, this value can be
  | meaningless and should be avoided.

------------------------------------------------------------------------------

------------------------------------------------------------
          Leaving FHI-aims.
          Date     :  20150727, Time     :  115240.887

          Computational steps:
          | Number of self-consistency cycles          :           17

          Detailed time accounting                     :  max(cpu_time)    wall_clock(cpu1)
          | Total time                                 :       95.741 s          95.730 s
          | Preparation time                           :        0.171 s           0.546 s
          | Grid partitioning                          :        0.201 s           0.202 s
          | Preloading free-atom quantities on grid    :        0.013 s           0.014 s
          | Free-atom superposition energy             :        0.126 s           0.126 s
          | Total time for integrations                :       40.584 s          40.586 s
          | Total time for solution of K.-S. equations :        2.646 s           2.648 s
          | Total time for density & force components  :       35.544 s          35.545 s
          | Total time for mixing                      :        0.331 s           0.334 s
          | Total time for Hartree multipole update    :        0.125 s           0.120 s
          | Total time for Hartree multipole sum       :       15.033 s          15.033 s
          | Total time for total energy evaluation     :        0.008 s           0.007 s
          | Total time for scaled ZORA corrections     :        0.000 s           0.000 s
          | Total time for TS (2009) vdW correction    :        0.105 s           0.106 s

          Have a nice day.
------------------------------------------------------------
