  MPI-parallelism will be employed.
------------------------------------------------------------
          Invoking FHI-aims ...
          Version 081213
          Compiled on 2013/08/29 at 17:41:06 on host generoso.

          When using FHI-aims, please cite the following reference:

          Volker Blum, Ralf Gehrke, Felix Hanke, Paula Havu,
          Ville Havu, Xinguo Ren, Karsten Reuter, and Matthias Scheffler,
          'Ab Initio Molecular Simulations with Numeric Atom-Centered Orbitals: FHI-aims',
          Computer Physics Communications 180, 2175-2196 (2009)

          For any questions about FHI-aims, please visit the aimsclub website
          with its forums and wiki. Contributions to both the forums and the
          wiki are warmly encouraged - they are for you, and everyone is welcome there.

------------------------------------------------------------

  Date     :  20150727, Time     :  124057.659
  Time zero on CPU 1             :   0.439920000000000E-01  s.
  Internal wall clock time zero  :           207232857.659  s.

  Using        8 parallel tasks.
  Task        0 on host gen59 reporting.
  Task        1 on host gen59 reporting.
  Task        2 on host gen59 reporting.
  Task        3 on host gen59 reporting.
  Task        4 on host gen59 reporting.
  Task        5 on host gen59 reporting.
  Task        6 on host gen59 reporting.
  Task        7 on host gen59 reporting.

  Performing system and environment tests:
  | Environment variable OMP_NUM_THREADS correctly set to 1.
  | Checking for scalapack...
  | No scalapack compiled in.

  Obtaining array dimensions for all initial allocations:
  
  -----------------------------------------------------------------------
  Parsing control.in (first pass over file, find array dimensions only).
  The contents of control.in will be repeated verbatim below
  unless switched off by setting 'verbatim_writeout .false.' .
  in the first line of control.in .
  -----------------------------------------------------------------------
  
  #########################################################################################
  #
  #  Volker Blum, FHI 2008 : Test run input file control.in
  #
  #########################################################################################
  #
  #  Physical model
  #
    xc                 rpbe
    spin               none
    relativistic       atomic_zora scalar
    charge             0.
   vdw_correction_hirshfeld
  #
  #  SCF convergence
  #
    occupation_type    gaussian 0.01
    mixer              pulay
      n_max_pulay        10
      charge_mix_param   0.1
    sc_accuracy_rho    5E-5
    sc_accuracy_eev    5E-3
    sc_accuracy_etot   5E-6
    sc_iter_limit      3000
  #
  #  Eigenvalue solver
  #
    KS_method          lapack
      empty_states       8
      basis_threshold    0.e-5
  #
  #  Efficiency
  #
  #   all previous settings are now default, except stratmann still
  #   undecided. Continue to handle stratmann with care, if at all.
  #
  #  partition_type stratmann
    partition_type rho_r2
  #  hartree_partition_type stratmann
  #
  #  Oprions for large clusters (100's of atoms: memory saving / better scaling)
  #
  # for periodic systems:
  #
    density_update_method orbital
    packed_matrix_format none
  #  k_grid 6 6 6
  #  output k_eigenvalue 1
  #  distributed_spline_storage .true.
  #
  #  Relaxation
  #
  #  relax_geometry   bfgs 5.e-3
    sc_accuracy_forces 5.E-4
    final_forces_cleaned .true.
  #
  #  Output options
  #
  #  output mulliken
    output Hirshfeld
  #  output dipole
  
  #harmonic_length_scale 0.001
  
  ################################################################################
  #
  #  FHI-aims code project
  #  VB, Fritz-Haber Institut, 2007
  #
  #  Suggested "safe" defaults for H atom (to be pasted into control.in file)
  #  Basis constructed for a non-relativistic H2 molecule using the
  #  PW-LDA functional.
  #
  ################################################################################
    species        H
  #     global species definitions
      nucleus             1
      cut_pot             4.0  2.0  1.0
      cut_free_atom       finite 8.0
      logarithmic         0.00010000 100.00  1.0123
      basis_dep_cutoff    1d-4  # 1d-4 is safe default - please check 5d-4 if you wish!
      radial_base         24 7.0
      radial_multiplier   2
      angular_grids       specified
        division   0.2783  110
        division   0.3822  194
        division   0.5626  302
  #      division   0.5922  434
  #      division   0.6227  590
  #      division   0.7206  770
        outer_grid  302
      l_hartree           4
  ################################################################################
  #
  #  Definition of "minimal" basis
  #
  ################################################################################
  #     valence basis states
      valence      1  s   1.
  #     ion occupancy
      ion_occ      1  s   0.5
  ################################################################################
  #
  #  Suggested additional basis functions. For production calculations,
  #  uncomment them one after another (the most important basis functions are
  #  listed first).
  #
  ################################################################################
  #  "First tier" - improvements: -1014.90 meV to -62.69 meV
       hydro 2 s 2.1
       hydro 2 p 3.5
  #  "Second tier" - improvements: -12.89 meV to -1.83 meV
       hydro 1 s 0.85
       hydro 2 p 3.7
       hydro 2 s 1.2
       hydro 3 d 7
  #  "Third tier" - improvements: -0.25 meV to -0.12 meV
  #     hydro 4 f 11.2
  #     hydro 3 p 4.8
  #     hydro 4 d 9
  #     hydro 3 s 3.2
  
  ################################################################################
  #
  #  FHI-aims code project
  #  VB, Fritz-Haber Institut, 2007
  #
  #  Suggested "safe" defaults for O atom (to be pasted into control.in file)
  #  All values have been tested for a non-relativistic, non-spinpolarized O2
  #  molecule using the PW-LDA functional. Validity for PBE is expected.
  #
  #  Constructed for dimers: 1.0 A, 1.208 A, 1.5 A, 2.0 A, 3.0 A
  #
  ################################################################################
    species        O
  #     global species definitions
      nucleus             8
      mass                15.9994
      l_hartree           4
      cut_pot             4.0  2.0  1.0
      cut_free_atom       finite 8.0
      basis_dep_cutoff    1d-4  # 1d-4 is safe default - please check 5d-4 if you wish!
      logarithmic         0.00010000 100.00  1.0123
      radial_base         36 7.0
      radial_multiplier   2
       angular_grids specified
        division   0.4087  110
        division   0.5181  194
        division   0.6184  302
  #      division   0.7315  434
  #      division   0.7934  590
  #      division   0.9656  770
  #      division   1.4041  974
  #      outer_grid 974
        outer_grid 302
  ################################################################################
  #
  #  Definition of "minimal" basis
  #
  ################################################################################
  #     valence basis states
      valence      2  s   2.
      valence      2  p   4.
  #     ion occupancy
      ion_occ      2  s   1.
      ion_occ      2  p   3.
  ################################################################################
  #
  #  Suggested additional basis functions. For production calculations,
  #  uncomment them one after another (the most important basis functions are
  #  listed first).
  #
  ################################################################################
  #  "First tier" - improvements: -699.05 meV to -159.38 meV
       hydro 2 p 1.8
       hydro 3 d 7.6
       hydro 3 s 6.4
  #  "Second tier" - improvements: -49.91 meV to -5.39 meV
       hydro 4 f 11.6
       hydro 3 p 6.2
       hydro 3 d 5.6
       hydro 5 g 17.6
       hydro 1 s 0.75
  #  "Third tier" - improvements: -2.83 meV to -0.50 meV
  #     ionic 2 p auto
  #     hydro 4 f 10.8
  #     hydro 4 d 4.7
  #     hydro 2 s 6.8
  #  "Fourth tier" - improvements: -0.40 meV to -0.12 meV
  #     hydro 3 p 5
  #     hydro 3 s 3.3
  #     hydro 5 g 15.6
  #     hydro 4 f 17.6
  #     hydro 4 d 14
  # Further basis functions - -0.08 meV and below
  #     hydro 3 s 2.1
  #     hydro 4 d 11.6
  #     hydro 3 p 16
  #     hydro 2 s 17.2
  
  
  -----------------------------------------------------------------------
  Completed first pass over input file control.in .
  -----------------------------------------------------------------------
  
  
  -----------------------------------------------------------------------
  Parsing geometry.in (first pass over file, find array dimensions only).
  The contents of geometry.in will be repeated verbatim below
  unless switched off by setting 'verbatim_writeout .false.' .
  in the first line of geometry.in .
  -----------------------------------------------------------------------
  
  atom      -4.053030000      0.065001000     -1.525160000  O
  atom      -4.566710000      0.974813000     -1.912820000  H
  atom      -3.067820000      0.330172000     -1.477310000  H
  atom      -4.370360000     -0.049164000     -0.572274000  H
  atom      -5.293160000      2.192130000     -2.328800000  O
  atom      -4.829300000      2.988660000     -1.973850000  H
  atom      -5.428570000      2.328640000     -3.235170000  H
  atom      -1.645860000      0.870179000     -1.502250000  O
  atom      -1.568890000      1.501730000     -0.721051000  H
  atom      -0.824432000      0.282220000     -1.377720000  H
  atom      -1.975360000      2.858040000      0.453140000  O
  atom      -1.223550000      3.375850000      0.786238000  H
  atom      -2.537520000      2.567960000      1.156120000  H
  atom      -4.066610000      4.258280000     -0.900064000  O
  atom      -3.224110000      3.876870000     -0.569443000  H
  atom      -3.737450000      5.116530000     -1.322720000  H
  
  -----------------------------------------------------------------------
  Completed first pass over input file geometry.in .
  -----------------------------------------------------------------------
  
 
  Basic array size parameters: 
  | Number of species                 :        2
  | Number of atoms                   :       16
  | Max. basis fn. angular momentum   :        4
  | Max. atomic/ionic basis occupied n:        2
  | Max. number of basis fn. types    :        2
  | Max. radial fns per species/type  :        8
  | Max. logarithmic grid size        :     1301
  | Max. radial integration grid size :       73
  | Max. angular integration grid size:      302
  | Max. angular grid division number :        8
  | Radial grid for Hartree potential :     1301
  | Number of spin channels           :        1

------------------------------------------------------------
          Reading file control.in.
------------------------------------------------------------
  XC: Using RPBE gradient-corrected functionals.
  Spin treatment: No spin polarisation.
  Scalar relativistic treatment of kinetic energy: on-site free-atom approximation to ZORA.
  Charge =   0.000000E+00: Neutral system requested explicitly.
  Using non-empirical van der Waals correction (Hirshfeld partitioning):
  Occupation type: Gaussian broadening, width =   0.100000E-01 eV.
  Using pulay charge density mixing.
  Pulay mixing - number of memorized iterations:   10
  Charge density mixing - mixing parameter:     0.1000
  Convergence accuracy of self-consistent charge density: 0.5000E-04
  Convergence accuracy of sum of eigenvalues: 0.5000E-02
  Convergence accuracy of total energy: 0.5000E-05
  Maximum number of s.-c. iterations  :  3000
  Kohn-Sham eigenvalues and eigenfunctions calculated by lapack diagonalisation (D&C).
  Number of empty states per atom:        8
  Threshold for basis singularities: 0.0000E+00
  Partition function in integrals calculations: rho / r^2
 Using packed matrix format           0
  Convergence accuracy of forces: 0.5000E-03
  Cleaning forces before final output.
  Hirshfeld charge analysis will be performed.
 
  Reading configuration options for species H                   .
  | Found nuclear charge :   1.0000
  | Found cutoff potl. onset [A], width [A], scale factor :    4.00000    2.00000    1.00000
  | Found cutoff specification for free atom: Cutoff potential begins at    8.00000 A.
  | Found logarithmic grid data [bohr] : 0.1000E-03 0.1000E+03 0.1012E+01
  | Threshold for basis-dependent cutoff potential is   0.100000E-03
  | Found data for basic radial integration grid :    24 points, outermost radius =    7.000 A
  | Found multiplier for basic radial grid :   2
  | Found angular grid specification: user-specified.
  | Specified grid contains     4 separate shells.
  | Check grid settings after all constraints further below.
  | Found l_max for Hartree potential  :   4
  | Found free-atom valence shell :  1 s   1.000
  | No ionic wave fns used. Skipping ion_occ.
  | Found hydrogenic basis function :  2 s   2.100
  | Found hydrogenic basis function :  2 p   3.500
  | Found hydrogenic basis function :  1 s   0.850
  | Found hydrogenic basis function :  2 p   3.700
  | Found hydrogenic basis function :  2 s   1.200
  | Found hydrogenic basis function :  3 d   7.000
  Species H                   : Missing cutoff potential type.
  Defaulting to exp(1/x)/(1-x)^2 type cutoff potential.
  Species H : On-site basis accuracy parameter (for Gram-Schmidt orthonormalisation) not specified.
  Using default value basis_acc =  0.1000000E-03.
  Species H                   : Using default innermost maximum threshold i_radial=  2 for radial functions.
  Species H                   : Basic radial grid will be enhanced according to radial_multiplier =   2, to contain    49 grid points.
 
  Reading configuration options for species O                   .
  | Found nuclear charge :   8.0000
  | Found atomic mass :    15.9994000000000      amu
  | Found l_max for Hartree potential  :   4
  | Found cutoff potl. onset [A], width [A], scale factor :    4.00000    2.00000    1.00000
  | Found cutoff specification for free atom: Cutoff potential begins at    8.00000 A.
  | Threshold for basis-dependent cutoff potential is   0.100000E-03
  | Found logarithmic grid data [bohr] : 0.1000E-03 0.1000E+03 0.1012E+01
  | Found data for basic radial integration grid :    36 points, outermost radius =    7.000 A
  | Found multiplier for basic radial grid :   2
  | Found angular grid specification: user-specified.
  | Specified grid contains     4 separate shells.
  | Check grid settings after all constraints further below.
  | Found free-atom valence shell :  2 s   2.000
  | Found free-atom valence shell :  2 p   4.000
  | No ionic wave fns used. Skipping ion_occ.
  | No ionic wave fns used. Skipping ion_occ.
  | Found hydrogenic basis function :  2 p   1.800
  | Found hydrogenic basis function :  3 d   7.600
  | Found hydrogenic basis function :  3 s   6.400
  | Found hydrogenic basis function :  4 f  11.600
  | Found hydrogenic basis function :  3 p   6.200
  | Found hydrogenic basis function :  3 d   5.600
  | Found hydrogenic basis function :  5 g  17.600
  | Found hydrogenic basis function :  1 s   0.750
  Species O                   : Missing cutoff potential type.
  Defaulting to exp(1/x)/(1-x)^2 type cutoff potential.
  Species O : On-site basis accuracy parameter (for Gram-Schmidt orthonormalisation) not specified.
  Using default value basis_acc =  0.1000000E-03.
  Species O                   : Using default innermost maximum threshold i_radial=  2 for radial functions.
  Species O                   : Basic radial grid will be enhanced according to radial_multiplier =   2, to contain    73 grid points.
 
  Finished reading input file 'control.in'. Consistency checks are next.
 
  Target number of points in a grid batch is not set. Defaulting to  100
  Method for grid partitioning is not set. Defaulting to parallel hash+maxmin partitioning.
  Batch size limit is not set. Defaulting to    200
  By default, will store active basis functions for each batch.
  If in need of memory, prune_basis_once .false. can be used to disable this option.
  communication_type for Hartree potential was not specified.
  Defaulting to calc_hartree .
  Pulay mixer: Number of initial linear mixing iterations not set.
  Defaulting to    0 iterations.
  Work space size for distributed Hartree potential not set.
  Defaulting to   0.200000E+03 MB.
  Algorithm-dependent basis array size parameters:
  | n_max_pulay                         :       10
  Geometry relaxation not requested: no relaxation will be performed.
  Handling of forces: Unphysical translation and rotation will be removed from forces.
  No accuracy limit for integral partition fn. given. Defaulting to 0.1000E-14.
  No threshold value for u(r) in integrations given. Defaulting to 0.1000E-05.
  No accuracy for occupation numbers given. Defaulting to 0.1000E-07.
  No threshold value for occupation numbers given. Defaulting to 0.0000E+00.
  No accuracy for fermi level given. Defaulting to 0.1000E-19.
  Maximum # of iterations to find E_F not set. Defaulting to  200.
  Will not use alltoall communication since running on < 1024 CPUs.
  Partitioning for Hartree potential was not defined. Using partition_type for integrals.
  | Reporting present value of keyword multip_moments_threshold  :       0.10000000E-09
  | This value may affect high angular momentum components of the Hartree potential in periodic systems.
  No q(lm)/r^(l+1) cutoff set for long-range Hartree potential.
  | Using default value of  0.100000E-09 .
  | Verify using the multipole_threshold keyword.
  Defaulting to new monopole extrapolation.
  Density update method: Loop over occupied states selected for charge density update.
------------------------------------------------------------


------------------------------------------------------------
          Reading geometry description geometry.in.
------------------------------------------------------------
  Input structure read successfully.
  The structure contains       16 atoms,  and a total of         51.000 electrons.

  Input geometry:
  | No unit cell requested.
  | Atomic structure:
  |       Atom                x [A]            y [A]            z [A]
  |    1: Species O             -4.053030         0.065001        -1.525160
  |    2: Species H             -4.566710         0.974813        -1.912820
  |    3: Species H             -3.067820         0.330172        -1.477310
  |    4: Species H             -4.370360        -0.049164        -0.572274
  |    5: Species O             -5.293160         2.192130        -2.328800
  |    6: Species H             -4.829300         2.988660        -1.973850
  |    7: Species H             -5.428570         2.328640        -3.235170
  |    8: Species O             -1.645860         0.870179        -1.502250
  |    9: Species H             -1.568890         1.501730        -0.721051
  |   10: Species H             -0.824432         0.282220        -1.377720
  |   11: Species O             -1.975360         2.858040         0.453140
  |   12: Species H             -1.223550         3.375850         0.786238
  |   13: Species H             -2.537520         2.567960         1.156120
  |   14: Species O             -4.066610         4.258280        -0.900064
  |   15: Species H             -3.224110         3.876870        -0.569443
  |   16: Species H             -3.737450         5.116530        -1.322720
  |

  | The smallest distance between any two atoms is         0.92654057 AA.
  |
  | The first atom of this pair is atom number                      5 .
  | The second atom of this pair is atom number                     7 .

  Structure-dependent array size parameters: 
  | Maximum number of distinct radial functions  :       18
  | Maximum number of basis functions            :      360
  | Number of Kohn-Sham states (occupied + empty):       90
------------------------------------------------------------

------------------------------------------------------------
          Preparing all fixed parts of the calculation.
------------------------------------------------------------
  Determining machine precision:
    2.225073858507201E-308
  Setting up grids for atomic and cluster calculations.

  Creating wave function, potential, and density for free atoms.

  Species: H

  List of occupied orbitals and eigenvalues:
    n    l              occ      energy [Ha]    energy [eV]
    1    0           1.0000        -0.241408        -6.5691


  Species: O

  List of occupied orbitals and eigenvalues:
    n    l              occ      energy [Ha]    energy [eV]
    1    0           2.0000       -18.944147      -515.4965
    2    0           2.0000        -0.883529       -24.0421
    2    1           4.0000        -0.330176        -8.9845

  Creating fixed part of basis set: Ionic, confined, hydrogenic.
 
  H                    hydrogenic:
 
  List of hydrogenic basis orbitals: 
    n    l      effective z      eigenvalue [eV]  inner max. [A]     outer max. [A]     outer radius [A]   
    2    0         2.100000       -14.9965           0.193241           1.317192           5.372934
    2    1         3.500000       -41.6672           0.602363           0.602363           4.056010
    1    0         0.850000        -9.8292           0.624864           0.624864           5.372934
    2    1         3.700000       -46.5653           0.573616           0.573616           3.909951
    2    0         1.200000        -4.5995           0.334977           2.228160           5.505921
    3    2         7.000000       -74.0753           0.680692           0.680692           3.769152
 
 
  O                    hydrogenic:
 
  List of hydrogenic basis orbitals: 
    n    l      effective z      eigenvalue [eV]  inner max. [A]     outer max. [A]     outer radius [A]   
    2    1         1.800000       -11.0118           1.178546           1.178546           5.432516
    3    2         7.600000       -87.3182           0.624117           0.624117           3.541422
    3    0         6.400000       -61.9209           0.061166           1.081887           4.306510
    4    3        11.600000      -114.4238           0.731621           0.731621           3.584982
    3    1         6.200000       -58.1113           0.255677           1.030255           4.306510
    3    2         5.600000       -47.4081           0.847222           0.847222           4.413102
    5    4        17.600000      -168.5799           0.749730           0.749730           3.372413
    1    0         0.750000        -7.6499           0.705275           0.705275           5.366508
 

  Adding cutoff potential to free-atom effective potential.
  Creating atomic-like basis functions for current effective potential.

  Species H                   :

  List of atomic basis orbitals and eigenvalues:
    n    l      energy [Ha]    energy [eV]    outer radius [A]
    1    0        -0.241374        -6.5681       5.372934


  Species O                   :

  List of atomic basis orbitals and eigenvalues:
    n    l      energy [Ha]    energy [eV]    outer radius [A]
    1    0       -18.944147      -515.4965       1.415745
    2    0        -0.883529       -24.0421       5.048305
    2    1        -0.330173        -8.9845       5.301302

  Assembling full basis from fixed parts.
  | Species H :   atomic orbital   1 s accepted.
  | Species H :    hydro orbital   2 s accepted.
  | Species H :    hydro orbital   1 s accepted.
  | Species H :    hydro orbital   2 s accepted.
  | Species H :    hydro orbital   2 p accepted.
  | Species H :    hydro orbital   2 p accepted.
  | Species H :    hydro orbital   3 d accepted.
  | Species O :   atomic orbital   1 s accepted.
  | Species O :    hydro orbital   3 s accepted.
  | Species O :   atomic orbital   2 s accepted.
  | Species O :    hydro orbital   1 s accepted.
  | Species O :    hydro orbital   3 p accepted.
  | Species O :   atomic orbital   2 p accepted.
  | Species O :    hydro orbital   2 p accepted.
  | Species O :    hydro orbital   3 d accepted.
  | Species O :    hydro orbital   3 d accepted.
  | Species O :    hydro orbital   4 f accepted.
  | Species O :    hydro orbital   5 g accepted.
 
  Basis size parameters after reduction:
  | Total number of radial functions:       18
  | Total number of basis functions :      360
 
  Testing on-site integration grid accuracy.
  |  Species  Function  <phi|h_atom|phi> (log., in eV)  <phi|h_atom|phi> (rad., in eV)
           1        1                 -6.5683835025                 -6.5684759159
           1        2                 13.3711789951                 13.3708738703
           1        3                 23.6590910787                 23.6532055418
           1        4                 16.2963827186                 16.1870710655 ***
           1        5                 28.7627214838                 28.7627215090
           1        6                 59.5965249172                 59.5965950857
           1        7                 60.2220506392                 60.2220503827
           2        8               -515.4964576505               -515.4964530710
           2        9                 15.3030791347                 15.3030722972
           2       10                -21.7296094581                -21.7296135470
           2       11                 14.2969371730                 14.2969701621
           2       12                 21.0679693190                 21.0679697493
           2       13                 -2.3833606469                 -2.3833613176
           2       14                 13.7067136422                 13.7066766629
           2       15                 45.8013116808                 45.8013116965
           2       16                 52.2309815402                 52.2309831494
           2       17                 85.4120732416                 85.4120732763
           2       18                142.1019167745                142.1019167817
 * Note: Onsite integrals marked "***" above are less accurate than
 * onsite_accuracy_threshold =    0.03000 eV. Usually, this is harmless.
 * When in doubt, tighten the "radial" and/or "radial_multiplier" flags to check.

  Preparing densities etc. for the partition functions (integrals / Hartree potential).

  Preparations completed.
  max(cpu_time)          :      0.173 s.
  Wall clock time (cpu1) :      0.633 s.
------------------------------------------------------------

------------------------------------------------------------
          Begin self-consistency loop: Initialization.

          Date     :  20150727, Time     :  124058.312
------------------------------------------------------------

  Initializing index lists of integration centers etc. from given atomic structure:
  | Number of centers in hartree potential         :        16
  | Number of centers in hartree multipole         :        16
  | Number of centers in electron density summation:        16
  | Number of centers in basis integrals           :        16
  | Number of centers in integrals                 :        16
  Partitioning the integration grid into batches with parallel hashing+maxmin method.
  | Number of batches:     2206
  | Maximal batch size:     200
  | Minimal batch size:      53
  | Average batch size:      94.426
  | Standard deviation of batch sizes:      27.660

  Integration load balanced across     8 MPI tasks.
  Work distribution over tasks is as follows:
  Task     0 has      26060 integration points.
  Task     1 has      26059 integration points.
  Task     2 has      25984 integration points.
  Task     3 has      26101 integration points.
  Task     4 has      26016 integration points.
  Task     5 has      26035 integration points.
  Task     6 has      26032 integration points.
  Task     7 has      26017 integration points.
  Initializing partition tables, free-atom densities, potentials, etc. across the integration grid (initialize_grid_storage).
  | Net number of integration points:   208304
  | of which are non-zero points    :   207765
  Obtaining max. number of non-zero basis functions in each batch (get_n_compute_maxes).
  | Maximal number of non-zero basis functions:      357 in task     0
  | Maximal number of non-zero basis functions:      357 in task     1
  | Maximal number of non-zero basis functions:      357 in task     2
  | Maximal number of non-zero basis functions:      357 in task     3
  | Maximal number of non-zero basis functions:      357 in task     4
  | Maximal number of non-zero basis functions:      357 in task     5
  | Maximal number of non-zero basis functions:      357 in task     6
  | Maximal number of non-zero basis functions:      357 in task     7
  Integrating Hamiltonian matrix: batch-based integration.
  Time summed over all CPUs for integration: real work        8.949 s, elapsed        9.093 s
  Integrating overlap matrix.
  Time summed over all CPUs for integration: real work        4.820 s, elapsed        4.879 s

  Updating Kohn-Sham eigenvalues, eigenvectors, occupation numbers, and Fermi level.
  Solving generalized eigenproblem
  Updating Kohn-Sham eigenvalues and eigenfunctions.
  Transforming overlap matrix and checking for singularities.
  Overlap matrix is nonsingular:
  | Lowest eigenvalue:  0.222925E-03
  Solving real generalised eigenvalue problem by standard LAPACK (fast)
  Determining occupation numbers for Kohn-Sham eigenstates.
  | Chemical potential (Fermi level) in eV                 : -.26931184E+01
  | Error in electron count due to remaining E_F inaccuracy: 0.00000000E+00
  | Maximum occupation number of highest empty state:  0.00E+00

  Writing Kohn-Sham eigenvalues.

  State    Occupation    Eigenvalue [Ha]    Eigenvalue [eV]
      1       2.00000         -19.065151         -518.78914
      2       2.00000         -19.064963         -518.78404
      3       2.00000         -19.059390         -518.63240
      4       2.00000         -19.042966         -518.18548
      5       2.00000         -19.042593         -518.17533
      6       2.00000          -1.129598          -30.73793
      7       2.00000          -1.115179          -30.34557
      8       2.00000          -1.111476          -30.24479
      9       2.00000          -1.086543          -29.56635
     10       2.00000          -1.081691          -29.43430
     11       2.00000          -0.653854          -17.79229
     12       2.00000          -0.651795          -17.73624
     13       2.00000          -0.639933          -17.41346
     14       2.00000          -0.622829          -16.94803
     15       2.00000          -0.610074          -16.60096
     16       2.00000          -0.606951          -16.51599
     17       2.00000          -0.535538          -14.57273
     18       2.00000          -0.521846          -14.20016
     19       2.00000          -0.507475          -13.80911
     20       2.00000          -0.502163          -13.66455
     21       2.00000          -0.485171          -13.20218
     22       2.00000          -0.452969          -12.32591
     23       2.00000          -0.448277          -12.19824
     24       2.00000          -0.435881          -11.86092
     25       2.00000          -0.433393          -11.79322
     26       1.00000          -0.098970           -2.69312
     27       0.00000          -0.063828           -1.73684
     28       0.00000          -0.062342           -1.69641
     29       0.00000          -0.046663           -1.26976
     30       0.00000          -0.030212           -0.82212
     31       0.00000          -0.001337           -0.03638
     32       0.00000           0.022785            0.62000
     33       0.00000           0.035614            0.96911
     34       0.00000           0.037883            1.03084
     35       0.00000           0.052765            1.43582
     36       0.00000           0.057991            1.57802
     37       0.00000           0.068657            1.86826
     38       0.00000           0.079193            2.15494
     39       0.00000           0.085761            2.33367
     40       0.00000           0.092043            2.50462
     41       0.00000           0.096548            2.62722
     42       0.00000           0.102917            2.80051
     43       0.00000           0.110191            2.99844
     44       0.00000           0.121096            3.29518
     45       0.00000           0.126611            3.44525
     46       0.00000           0.131595            3.58089
     47       0.00000           0.139172            3.78707
     48       0.00000           0.140495            3.82306
     49       0.00000           0.154360            4.20034
     50       0.00000           0.171215            4.65900
     51       0.00000           0.181667            4.94341
     52       0.00000           0.211625            5.75860
     53       0.00000           0.219486            5.97253
     54       0.00000           0.220794            6.00810
     55       0.00000           0.235558            6.40987
     56       0.00000           0.250078            6.80496
     57       0.00000           0.256894            6.99044
     58       0.00000           0.268993            7.31968
     59       0.00000           0.296517            8.06864
     60       0.00000           0.306078            8.32880
     61       0.00000           0.311394            8.47346
     62       0.00000           0.333358            9.07113
     63       0.00000           0.345715            9.40739
     64       0.00000           0.365181            9.93708
     65       0.00000           0.370060           10.06984
     66       0.00000           0.378687           10.30460
     67       0.00000           0.384567           10.46459
     68       0.00000           0.398083           10.83240
     69       0.00000           0.420009           11.42902
     70       0.00000           0.425869           11.58849
     71       0.00000           0.442612           12.04410
     72       0.00000           0.456061           12.41005
     73       0.00000           0.457738           12.45567
     74       0.00000           0.470047           12.79064
     75       0.00000           0.490029           13.33437
     76       0.00000           0.519793           14.14429
     77       0.00000           0.535283           14.56578
     78       0.00000           0.546954           14.88339
     79       0.00000           0.553758           15.06853
     80       0.00000           0.593619           16.15320
     81       0.00000           0.601897           16.37845
     82       0.00000           0.626156           17.03858
     83       0.00000           0.642098           17.47239
     84       0.00000           0.677652           18.43984
     85       0.00000           0.709331           19.30189
     86       0.00000           0.726533           19.76997
     87       0.00000           0.747824           20.34933
     88       0.00000           0.773219           21.04037
     89       0.00000           0.778432           21.18221
     90       0.00000           0.790529           21.51138

  Highest occupied state (VBM) at     -2.69311838 eV
  | Occupation number:      1.00000000

  Lowest unoccupied state (CBM) at    -2.69311838 eV
  | Occupation number:      1.00000000

  Overall HOMO-LUMO gap:      0.00000000 eV.
  Calculating total energy contributions from superposition of free atom densities.

  Total energy components:
  | Sum of eigenvalues            :        -217.91437136 Ha       -5929.75174705 eV
  | XC energy correction          :         -45.98482219 Ha       -1251.31067786 eV
  | XC potential correction       :          58.77985166 Ha        1599.48114447 eV
  | Free-atom electrostatic energy:        -178.41800626 Ha       -4855.00096996 eV
  | Hartree energy correction     :           0.00000000 Ha           0.00000000 eV
  | van der Waals energy corr.    :           0.00000000 Ha           0.00000000 eV
  | Entropy correction            :          -0.00010367 Ha          -0.00282095 eV
  | ---------------------------
  | Total energy                  :        -383.53734814 Ha      -10436.58225040 eV
  | Total energy, T -> 0          :        -383.53745181 Ha      -10436.58507134 eV  <-- do not rely on this value for anything but (periodic) metals
  | Electronic free energy        :        -383.53755548 Ha      -10436.58789229 eV

  Derived energy quantities:
  | Kinetic energy                :         379.95068721 Ha       10338.98424080 eV
  | Electrostatic energy          :        -717.50321316 Ha      -19524.25581334 eV
  | Energy correction for multipole
  | error in Hartree potential    :           0.00000000 Ha           0.00000000 eV
  | Sum of eigenvalues per atom                           :        -370.60948419 eV
  | Total energy (T->0) per atom                          :        -652.28656696 eV  <-- do not rely on this value for anything but (periodic) metals
  | Electronic free energy per atom                       :        -652.28674327 eV
  Initialize hartree_potential_storage
  Max. number of atoms included in rho_multipole:           16

  End scf initialization - timings             :  max(cpu_time)    wall_clock(cpu1)
  | Time for scf. initialization               :        2.372 s           2.371 s
  | Boundary condition initialization          :        0.000 s           0.000 s
  | Integration                                :        1.751 s           1.750 s
  | Solution of K.-S. eqns.                    :        0.212 s           0.216 s
  | Grid partitioning                          :        0.166 s           0.166 s
  | Preloading free-atom quantities on grid    :        0.014 s           0.013 s
  | Free-atom superposition energy             :        0.073 s           0.074 s
  | Total energy evaluation                    :        0.001 s           0.000 s
------------------------------------------------------------

------------------------------------------------------------
          Begin self-consistency iteration #    1

  Date     :  20150727, Time     :  124100.683
------------------------------------------------------------
  Evaluating new KS density.
  Integration grid: deviation in total charge (<rho> - N_e) =   4.263256E-14
  Pulay mixing of updated and previous charge densities.

  Evaluating partitioned Hartree potential by multipole expansion.
  | Analytical far-field extrapolation by fixed multipoles:
  | Hartree multipole sum: apparent total charge =  -0.106694E-05
  Summing up the Hartree potential.
  Time summed over all CPUs for potential: real work        2.899 s, elapsed        2.906 s
  | RMS charge density error from multipole expansion :   0.168224E-02

  Integrating Hamiltonian matrix: batch-based integration.
  Time summed over all CPUs for integration: real work        8.962 s, elapsed        9.111 s

  Updating Kohn-Sham eigenvalues, eigenvectors, occupation numbers, and Fermi level.
  Solving generalized eigenproblem
  Updating Kohn-Sham eigenvalues and eigenfunctions.
  Solving real generalised eigenvalue problem by standard LAPACK (fast)
  Determining occupation numbers for Kohn-Sham eigenstates.
  | Chemical potential (Fermi level) in eV                 : -.24624619E+01
  | Error in electron count due to remaining E_F inaccuracy: 0.00000000E+00
  | Maximum occupation number of highest empty state:  0.00E+00

  Writing Kohn-Sham eigenvalues.

  State    Occupation    Eigenvalue [Ha]    Eigenvalue [eV]
      1       2.00000         -19.011006         -517.31579
      2       2.00000         -18.993432         -516.83758
      3       2.00000         -18.985451         -516.62041
      4       2.00000         -18.971984         -516.25394
      5       2.00000         -18.965737         -516.08397
      6       2.00000          -1.101314          -29.96828
      7       2.00000          -1.082516          -29.45677
      8       2.00000          -1.075596          -29.26844
      9       2.00000          -1.047064          -28.49205
     10       2.00000          -1.046373          -28.47325
     11       2.00000          -0.623179          -16.95756
     12       2.00000          -0.620839          -16.89390
     13       2.00000          -0.616923          -16.78732
     14       2.00000          -0.599536          -16.31422
     15       2.00000          -0.578273          -15.73561
     16       2.00000          -0.574099          -15.62202
     17       2.00000          -0.503989          -13.71425
     18       2.00000          -0.486763          -13.24551
     19       2.00000          -0.471519          -12.83068
     20       2.00000          -0.466312          -12.68898
     21       2.00000          -0.454813          -12.37610
     22       2.00000          -0.417748          -11.36749
     23       2.00000          -0.410727          -11.17646
     24       2.00000          -0.399715          -10.87680
     25       2.00000          -0.392525          -10.68114
     26       1.00000          -0.090494           -2.46246
     27       0.00000          -0.055813           -1.51876
     28       0.00000          -0.054599           -1.48572
     29       0.00000          -0.040091           -1.09093
     30       0.00000          -0.023109           -0.62884
     31       0.00000           0.004550            0.12380
     32       0.00000           0.033519            0.91209
     33       0.00000           0.041907            1.14035
     34       0.00000           0.047295            1.28696
     35       0.00000           0.059806            1.62740
     36       0.00000           0.066135            1.79962
     37       0.00000           0.077263            2.10242
     38       0.00000           0.087249            2.37417
     39       0.00000           0.095447            2.59724
     40       0.00000           0.101891            2.77259
     41       0.00000           0.104121            2.83327
     42       0.00000           0.113302            3.08309
     43       0.00000           0.122974            3.34629
     44       0.00000           0.130355            3.54714
     45       0.00000           0.134579            3.66208
     46       0.00000           0.142035            3.86498
     47       0.00000           0.147947            4.02585
     48       0.00000           0.152056            4.13767
     49       0.00000           0.163817            4.45769
     50       0.00000           0.178873            4.86739
     51       0.00000           0.188709            5.13503
     52       0.00000           0.218529            5.94646
     53       0.00000           0.226978            6.17638
     54       0.00000           0.229831            6.25402
     55       0.00000           0.243481            6.62545
     56       0.00000           0.258627            7.03760
     57       0.00000           0.264076            7.18589
     58       0.00000           0.276257            7.51733
     59       0.00000           0.301387            8.20116
     60       0.00000           0.314355            8.55403
     61       0.00000           0.318641            8.67066
     62       0.00000           0.341296            9.28714
     63       0.00000           0.353396            9.61641
     64       0.00000           0.373020           10.15039
     65       0.00000           0.378501           10.29954
     66       0.00000           0.387092           10.53330
     67       0.00000           0.392175           10.67164
     68       0.00000           0.406488           11.06109
     69       0.00000           0.426060           11.59369
     70       0.00000           0.433910           11.80728
     71       0.00000           0.449926           12.24310
     72       0.00000           0.463177           12.60369
     73       0.00000           0.466163           12.68494
     74       0.00000           0.480246           13.06815
     75       0.00000           0.500369           13.61572
     76       0.00000           0.529136           14.39853
     77       0.00000           0.545202           14.83571
     78       0.00000           0.557967           15.18306
     79       0.00000           0.563104           15.32285
     80       0.00000           0.602797           16.40295
     81       0.00000           0.613438           16.69250
     82       0.00000           0.635817           17.30145
     83       0.00000           0.652097           17.74445
     84       0.00000           0.689087           18.75100
     85       0.00000           0.720242           19.59879
     86       0.00000           0.738037           20.08300
     87       0.00000           0.758911           20.65103
     88       0.00000           0.783125           21.30992
     89       0.00000           0.790367           21.50699
     90       0.00000           0.801138           21.80006

  Highest occupied state (VBM) at     -2.46246187 eV
  | Occupation number:      1.00000000

  Lowest unoccupied state (CBM) at    -2.46246187 eV
  | Occupation number:      1.00000000

  Overall HOMO-LUMO gap:      0.00000000 eV.

  Total energy components:
  | Sum of eigenvalues            :        -215.88535812 Ha       -5874.53948780 eV
  | XC energy correction          :         -46.20256125 Ha       -1257.23565904 eV
  | XC potential correction       :          59.06383627 Ha        1607.20875891 eV
  | Free-atom electrostatic energy:        -178.41800626 Ha       -4855.00096996 eV
  | Hartree energy correction     :          -1.98067688 Ha         -53.89696008 eV
  | van der Waals energy corr.    :           0.00000000 Ha           0.00000000 eV
  | Entropy correction            :          -0.00010367 Ha          -0.00282095 eV
  | ---------------------------
  | Total energy                  :        -383.42276623 Ha      -10433.46431796 eV
  | Total energy, T -> 0          :        -383.42286990 Ha      -10433.46713891 eV  <-- do not rely on this value for anything but (periodic) metals
  | Electronic free energy        :        -383.42297357 Ha      -10433.46995986 eV

  Derived energy quantities:
  | Kinetic energy                :         381.28216672 Ha       10375.21564156 eV
  | Electrostatic energy          :        -718.50237170 Ha      -19551.44430049 eV
  | Energy correction for multipole
  | error in Hartree potential    :           0.00037868 Ha           0.01030432 eV
  | Sum of eigenvalues per atom                           :        -367.15871799 eV
  | Total energy (T->0) per atom                          :        -652.09169618 eV  <-- do not rely on this value for anything but (periodic) metals
  | Electronic free energy per atom                       :        -652.09187249 eV

  Self-consistency convergence accuracy:
  | Change of charge density      : 0.6289E+00
  | Change of sum of eigenvalues  : 0.5521E+02 eV
  | Change of total energy        : 0.3118E+01 eV

  End self-consistency iteration #     1       :  max(cpu_time)    wall_clock(cpu1)
  | Time for this iteration                    :        2.315 s           2.316 s
  | Charge density update                      :        0.720 s           0.743 s
  | Density mixing                             :        0.003 s           0.004 s
  | Hartree multipole update                   :        0.007 s           0.006 s
  | Hartree multipole summation                :        0.364 s           0.364 s
  | Integration                                :        1.141 s           1.141 s
  | Solution of K.-S. eqns.                    :        0.056 s           0.056 s
  | Total energy evaluation                    :        0.001 s           0.000 s
------------------------------------------------------------

------------------------------------------------------------
          Begin self-consistency iteration #    2

  Date     :  20150727, Time     :  124102.999
------------------------------------------------------------
  Evaluating new KS density.
  Integration grid: deviation in total charge (<rho> - N_e) =   0.000000E+00
  Pulay mixing of updated and previous charge densities.

  Evaluating partitioned Hartree potential by multipole expansion.
  | Analytical far-field extrapolation by fixed multipoles:
  | Hartree multipole sum: apparent total charge =  -0.387714E-05
  Summing up the Hartree potential.
  Time summed over all CPUs for potential: real work        2.899 s, elapsed        2.907 s
  | RMS charge density error from multipole expansion :   0.689624E-02

  Integrating Hamiltonian matrix: batch-based integration.
  Time summed over all CPUs for integration: real work        8.937 s, elapsed        9.082 s

  Updating Kohn-Sham eigenvalues, eigenvectors, occupation numbers, and Fermi level.
  Solving generalized eigenproblem
  Updating Kohn-Sham eigenvalues and eigenfunctions.
  Solving real generalised eigenvalue problem by standard LAPACK (fast)
  Determining occupation numbers for Kohn-Sham eigenstates.
  | Chemical potential (Fermi level) in eV                 : -.19370758E+01
  | Error in electron count due to remaining E_F inaccuracy: -.18936959E-08
  | Maximum occupation number of highest empty state:  0.00E+00

  Highest occupied state (VBM) at     -7.99537324 eV
  | Occupation number:      2.00000000

  Lowest unoccupied state (CBM) at    -1.93707583 eV
  | Occupation number:      1.00000000

  Overall HOMO-LUMO gap:      6.05829741 eV.

  Total energy components:
  | Sum of eigenvalues            :        -210.94849394 Ha       -5740.20057833 eV
  | XC energy correction          :         -46.76091289 Ha       -1272.42918024 eV
  | XC potential correction       :          59.79029121 Ha        1626.97660347 eV
  | Free-atom electrostatic energy:        -178.41800626 Ha       -4855.00096996 eV
  | Hartree energy correction     :          -6.95589781 Ha        -189.27960997 eV
  | van der Waals energy corr.    :           0.00000000 Ha           0.00000000 eV
  | Entropy correction            :          -0.00010367 Ha          -0.00282095 eV
  | ---------------------------
  | Total energy                  :        -383.29301969 Ha      -10429.93373503 eV
  | Total energy, T -> 0          :        -383.29312336 Ha      -10429.93655597 eV  <-- do not rely on this value for anything but (periodic) metals
  | Electronic free energy        :        -383.29322703 Ha      -10429.93937692 eV

  Derived energy quantities:
  | Kinetic energy                :         384.11345979 Ha       10452.25904607 eV
  | Electrostatic energy          :        -720.64556660 Ha      -19609.76360086 eV
  | Energy correction for multipole
  | error in Hartree potential    :           0.00056633 Ha           0.01541064 eV
  | Sum of eigenvalues per atom                           :        -358.76253615 eV
  | Total energy (T->0) per atom                          :        -651.87103475 eV  <-- do not rely on this value for anything but (periodic) metals
  | Electronic free energy per atom                       :        -651.87121106 eV

  Self-consistency convergence accuracy:
  | Change of charge density      : 0.4788E+00
  | Change of sum of eigenvalues  : 0.1343E+03 eV
  | Change of total energy        : 0.3531E+01 eV

  End self-consistency iteration #     2       :  max(cpu_time)    wall_clock(cpu1)
  | Time for this iteration                    :        2.280 s           2.279 s
  | Charge density update                      :        0.710 s           0.709 s
  | Density mixing                             :        0.006 s           0.006 s
  | Hartree multipole update                   :        0.005 s           0.005 s
  | Hartree multipole summation                :        0.365 s           0.364 s
  | Integration                                :        1.137 s           1.137 s
  | Solution of K.-S. eqns.                    :        0.057 s           0.056 s
  | Total energy evaluation                    :        0.000 s           0.000 s
------------------------------------------------------------

------------------------------------------------------------
          Begin self-consistency iteration #    3

  Date     :  20150727, Time     :  124105.278
------------------------------------------------------------
  Evaluating new KS density.
  Integration grid: deviation in total charge (<rho> - N_e) =  -1.893675E-09
  Pulay mixing of updated and previous charge densities.

  Evaluating partitioned Hartree potential by multipole expansion.
  | Analytical far-field extrapolation by fixed multipoles:
  | Hartree multipole sum: apparent total charge =  -0.407839E-05
  Summing up the Hartree potential.
  Time summed over all CPUs for potential: real work        2.899 s, elapsed        2.907 s
  | RMS charge density error from multipole expansion :   0.143916E-01

  Integrating Hamiltonian matrix: batch-based integration.
  Time summed over all CPUs for integration: real work        8.948 s, elapsed        9.076 s

  Updating Kohn-Sham eigenvalues, eigenvectors, occupation numbers, and Fermi level.
  Solving generalized eigenproblem
  Updating Kohn-Sham eigenvalues and eigenfunctions.
  Solving real generalised eigenvalue problem by standard LAPACK (fast)
  Determining occupation numbers for Kohn-Sham eigenstates.
  | Chemical potential (Fermi level) in eV                 : -.18687988E+01
  | Error in electron count due to remaining E_F inaccuracy: 0.42632564E-13
  | Maximum occupation number of highest empty state:  0.00E+00

  Highest occupied state (VBM) at     -1.86879878 eV
  | Occupation number:      1.00000000

  Lowest unoccupied state (CBM) at    -0.99156260 eV
  | Occupation number:      0.00000000

  Overall HOMO-LUMO gap:      0.87723618 eV.

  Total energy components:
  | Sum of eigenvalues            :        -211.18326167 Ha       -5746.58893314 eV
  | XC energy correction          :         -46.77347327 Ha       -1272.77096550 eV
  | XC potential correction       :          59.79704294 Ha        1627.16032751 eV
  | Free-atom electrostatic energy:        -178.41800626 Ha       -4855.00096996 eV
  | Hartree energy correction     :          -6.71444485 Ha        -182.70934040 eV
  | van der Waals energy corr.    :           0.00000000 Ha           0.00000000 eV
  | Entropy correction            :          -0.00010367 Ha          -0.00282095 eV
  | ---------------------------
  | Total energy                  :        -383.29214309 Ha      -10429.90988149 eV
  | Total energy, T -> 0          :        -383.29224676 Ha      -10429.91270244 eV  <-- do not rely on this value for anything but (periodic) metals
  | Electronic free energy        :        -383.29235043 Ha      -10429.91552339 eV

  Derived energy quantities:
  | Kinetic energy                :         382.35877751 Ha       10404.51171189 eV
  | Electrostatic energy          :        -718.87744734 Ha      -19561.65062787 eV
  | Energy correction for multipole
  | error in Hartree potential    :          -0.00418728 Ha          -0.11394176 eV
  | Sum of eigenvalues per atom                           :        -359.16180832 eV
  | Total energy (T->0) per atom                          :        -651.86954390 eV  <-- do not rely on this value for anything but (periodic) metals
  | Electronic free energy per atom                       :        -651.86972021 eV

  Self-consistency convergence accuracy:
  | Change of charge density      : 0.2293E+00
  | Change of sum of eigenvalues  : -.6388E+01 eV
  | Change of total energy        : 0.2385E-01 eV

  End self-consistency iteration #     3       :  max(cpu_time)    wall_clock(cpu1)
  | Time for this iteration                    :        2.273 s           2.273 s
  | Charge density update                      :        0.703 s           0.703 s
  | Density mixing                             :        0.007 s           0.007 s
  | Hartree multipole update                   :        0.005 s           0.005 s
  | Hartree multipole summation                :        0.364 s           0.365 s
  | Integration                                :        1.136 s           1.136 s
  | Solution of K.-S. eqns.                    :        0.057 s           0.056 s
  | Total energy evaluation                    :        0.000 s           0.000 s
------------------------------------------------------------

------------------------------------------------------------
          Begin self-consistency iteration #    4

  Date     :  20150727, Time     :  124107.551
------------------------------------------------------------
  Evaluating new KS density.
  Integration grid: deviation in total charge (<rho> - N_e) =   4.263256E-14
  Pulay mixing of updated and previous charge densities.

  Evaluating partitioned Hartree potential by multipole expansion.
  | Analytical far-field extrapolation by fixed multipoles:
  | Hartree multipole sum: apparent total charge =  -0.476548E-05
  Summing up the Hartree potential.
  Time summed over all CPUs for potential: real work        2.899 s, elapsed        2.906 s
  | RMS charge density error from multipole expansion :   0.172229E-01

  Integrating Hamiltonian matrix: batch-based integration.
  Time summed over all CPUs for integration: real work        8.937 s, elapsed        9.075 s

  Updating Kohn-Sham eigenvalues, eigenvectors, occupation numbers, and Fermi level.
  Solving generalized eigenproblem
  Updating Kohn-Sham eigenvalues and eigenfunctions.
  Solving real generalised eigenvalue problem by standard LAPACK (fast)
  Determining occupation numbers for Kohn-Sham eigenstates.
  | Chemical potential (Fermi level) in eV                 : -.17802853E+01
  | Error in electron count due to remaining E_F inaccuracy: 0.00000000E+00
  | Maximum occupation number of highest empty state:  0.00E+00

  Highest occupied state (VBM) at     -1.78028530 eV
  | Occupation number:      1.00000000

  Lowest unoccupied state (CBM) at    -1.78028530 eV
  | Occupation number:      1.00000000

  Overall HOMO-LUMO gap:      0.00000000 eV.

  Total energy components:
  | Sum of eigenvalues            :        -210.33279341 Ha       -5723.44651434 eV
  | XC energy correction          :         -46.89122872 Ha       -1275.97525429 eV
  | XC potential correction       :          59.94802787 Ha        1631.26883641 eV
  | Free-atom electrostatic energy:        -178.41800626 Ha       -4855.00096996 eV
  | Hartree energy correction     :          -7.59452493 Ha        -206.65753795 eV
  | van der Waals energy corr.    :           0.00000000 Ha           0.00000000 eV
  | Entropy correction            :          -0.00010367 Ha          -0.00282095 eV
  | ---------------------------
  | Total energy                  :        -383.28852544 Ha      -10429.81144013 eV
  | Total energy, T -> 0          :        -383.28862911 Ha      -10429.81426108 eV  <-- do not rely on this value for anything but (periodic) metals
  | Electronic free energy        :        -383.28873277 Ha      -10429.81708203 eV

  Derived energy quantities:
  | Kinetic energy                :         382.43666405 Ha       10406.63111236 eV
  | Electrostatic energy          :        -718.83396077 Ha      -19560.46729820 eV
  | Energy correction for multipole
  | error in Hartree potential    :          -0.00541761 Ha          -0.14742079 eV
  | Sum of eigenvalues per atom                           :        -357.71540715 eV
  | Total energy (T->0) per atom                          :        -651.86339132 eV  <-- do not rely on this value for anything but (periodic) metals
  | Electronic free energy per atom                       :        -651.86356763 eV

  Self-consistency convergence accuracy:
  | Change of charge density      : 0.9441E-01
  | Change of sum of eigenvalues  : 0.2314E+02 eV
  | Change of total energy        : 0.9844E-01 eV

  End self-consistency iteration #     4       :  max(cpu_time)    wall_clock(cpu1)
  | Time for this iteration                    :        2.275 s           2.275 s
  | Charge density update                      :        0.704 s           0.703 s
  | Density mixing                             :        0.009 s           0.009 s
  | Hartree multipole update                   :        0.005 s           0.005 s
  | Hartree multipole summation                :        0.364 s           0.364 s
  | Integration                                :        1.136 s           1.137 s
  | Solution of K.-S. eqns.                    :        0.057 s           0.056 s
  | Total energy evaluation                    :        0.000 s           0.000 s
------------------------------------------------------------

------------------------------------------------------------
          Begin self-consistency iteration #    5

  Date     :  20150727, Time     :  124109.826
------------------------------------------------------------
  Evaluating new KS density.
  Integration grid: deviation in total charge (<rho> - N_e) =   0.000000E+00
  Pulay mixing of updated and previous charge densities.

  Evaluating partitioned Hartree potential by multipole expansion.
  | Analytical far-field extrapolation by fixed multipoles:
  | Hartree multipole sum: apparent total charge =  -0.493438E-05
  Summing up the Hartree potential.
  Time summed over all CPUs for potential: real work        2.898 s, elapsed        2.906 s
  | RMS charge density error from multipole expansion :   0.179186E-01

  Integrating Hamiltonian matrix: batch-based integration.
  Time summed over all CPUs for integration: real work        8.930 s, elapsed        9.072 s

  Updating Kohn-Sham eigenvalues, eigenvectors, occupation numbers, and Fermi level.
  Solving generalized eigenproblem
  Updating Kohn-Sham eigenvalues and eigenfunctions.
  Solving real generalised eigenvalue problem by standard LAPACK (fast)
  Determining occupation numbers for Kohn-Sham eigenstates.
  | Chemical potential (Fermi level) in eV                 : -.17891297E+01
  | Error in electron count due to remaining E_F inaccuracy: 0.72738260E-10
  | Maximum occupation number of highest empty state:  0.00E+00

  Highest occupied state (VBM) at     -1.78912966 eV
  | Occupation number:      1.00000000

  Lowest unoccupied state (CBM) at    -0.91866856 eV
  | Occupation number:      0.00000000

  Overall HOMO-LUMO gap:      0.87046110 eV.

  Total energy components:
  | Sum of eigenvalues            :        -210.23446940 Ha       -5720.77098205 eV
  | XC energy correction          :         -46.90794480 Ha       -1276.43012208 eV
  | XC potential correction       :          59.96899298 Ha        1631.83932605 eV
  | Free-atom electrostatic energy:        -178.41800626 Ha       -4855.00096996 eV
  | Hartree energy correction     :          -7.69685366 Ha        -209.44204437 eV
  | van der Waals energy corr.    :           0.00000000 Ha           0.00000000 eV
  | Entropy correction            :          -0.00010367 Ha          -0.00282095 eV
  | ---------------------------
  | Total energy                  :        -383.28828114 Ha      -10429.80479241 eV
  | Total energy, T -> 0          :        -383.28838481 Ha      -10429.80761336 eV  <-- do not rely on this value for anything but (periodic) metals
  | Electronic free energy        :        -383.28848847 Ha      -10429.81043431 eV

  Derived energy quantities:
  | Kinetic energy                :         382.44176372 Ha       10406.76988149 eV
  | Electrostatic energy          :        -718.82210006 Ha      -19560.14455183 eV
  | Energy correction for multipole
  | error in Hartree potential    :          -0.00598962 Ha          -0.16298595 eV
  | Sum of eigenvalues per atom                           :        -357.54818638 eV
  | Total energy (T->0) per atom                          :        -651.86297583 eV  <-- do not rely on this value for anything but (periodic) metals
  | Electronic free energy per atom                       :        -651.86315214 eV

  Self-consistency convergence accuracy:
  | Change of charge density      : 0.2942E-01
  | Change of sum of eigenvalues  : 0.2676E+01 eV
  | Change of total energy        : 0.6648E-02 eV

  End self-consistency iteration #     5       :  max(cpu_time)    wall_clock(cpu1)
  | Time for this iteration                    :        2.276 s           2.275 s
  | Charge density update                      :        0.703 s           0.703 s
  | Density mixing                             :        0.010 s           0.010 s
  | Hartree multipole update                   :        0.005 s           0.005 s
  | Hartree multipole summation                :        0.364 s           0.364 s
  | Integration                                :        1.136 s           1.136 s
  | Solution of K.-S. eqns.                    :        0.057 s           0.056 s
  | Total energy evaluation                    :        0.000 s           0.000 s
------------------------------------------------------------

------------------------------------------------------------
          Begin self-consistency iteration #    6

  Date     :  20150727, Time     :  124112.101
------------------------------------------------------------
  Evaluating new KS density.
  Integration grid: deviation in total charge (<rho> - N_e) =   7.278800E-11
  Pulay mixing of updated and previous charge densities.

  Evaluating partitioned Hartree potential by multipole expansion.
  | Analytical far-field extrapolation by fixed multipoles:
  | Hartree multipole sum: apparent total charge =  -0.498020E-05
  Summing up the Hartree potential.
  Time summed over all CPUs for potential: real work        2.898 s, elapsed        2.906 s
  | RMS charge density error from multipole expansion :   0.182293E-01

  Integrating Hamiltonian matrix: batch-based integration.
  Time summed over all CPUs for integration: real work        8.919 s, elapsed        9.044 s

  Updating Kohn-Sham eigenvalues, eigenvectors, occupation numbers, and Fermi level.
  Solving generalized eigenproblem
  Updating Kohn-Sham eigenvalues and eigenfunctions.
  Solving real generalised eigenvalue problem by standard LAPACK (fast)
  Determining occupation numbers for Kohn-Sham eigenstates.
  | Chemical potential (Fermi level) in eV                 : -.17938011E+01
  | Error in electron count due to remaining E_F inaccuracy: 0.14567973E-08
  | Maximum occupation number of highest empty state:  0.00E+00

  Highest occupied state (VBM) at     -1.79380107 eV
  | Occupation number:      1.00000000

  Lowest unoccupied state (CBM) at    -0.92140844 eV
  | Occupation number:      0.00000000

  Overall HOMO-LUMO gap:      0.87239263 eV.

  Total energy components:
  | Sum of eigenvalues            :        -210.23799069 Ha       -5720.86680118 eV
  | XC energy correction          :         -46.91068879 Ha       -1276.50478984 eV
  | XC potential correction       :          59.97217834 Ha        1631.92600413 eV
  | Free-atom electrostatic energy:        -178.41800626 Ha       -4855.00096996 eV
  | Hartree energy correction     :          -7.69381141 Ha        -209.35926049 eV
  | van der Waals energy corr.    :           0.00000000 Ha           0.00000000 eV
  | Entropy correction            :          -0.00010367 Ha          -0.00282095 eV
  | ---------------------------
  | Total energy                  :        -383.28831880 Ha      -10429.80581733 eV
  | Total energy, T -> 0          :        -383.28842247 Ha      -10429.80863828 eV  <-- do not rely on this value for anything but (periodic) metals
  | Electronic free energy        :        -383.28852614 Ha      -10429.81145923 eV

  Derived energy quantities:
  | Kinetic energy                :         382.41488950 Ha       10406.03859667 eV
  | Electrostatic energy          :        -718.79251951 Ha      -19559.33962417 eV
  | Energy correction for multipole
  | error in Hartree potential    :          -0.00627964 Ha          -0.17087766 eV
  | Sum of eigenvalues per atom                           :        -357.55417507 eV
  | Total energy (T->0) per atom                          :        -651.86303989 eV  <-- do not rely on this value for anything but (periodic) metals
  | Electronic free energy per atom                       :        -651.86321620 eV

  Self-consistency convergence accuracy:
  | Change of charge density      : 0.7300E-02
  | Change of sum of eigenvalues  : -.9582E-01 eV
  | Change of total energy        : -.1025E-02 eV

  End self-consistency iteration #     6       :  max(cpu_time)    wall_clock(cpu1)
  | Time for this iteration                    :        2.274 s           2.273 s
  | Charge density update                      :        0.704 s           0.703 s
  | Density mixing                             :        0.011 s           0.012 s
  | Hartree multipole update                   :        0.005 s           0.005 s
  | Hartree multipole summation                :        0.364 s           0.364 s
  | Integration                                :        1.133 s           1.132 s
  | Solution of K.-S. eqns.                    :        0.056 s           0.057 s
  | Total energy evaluation                    :        0.001 s           0.000 s
------------------------------------------------------------

------------------------------------------------------------
          Begin self-consistency iteration #    7

  Date     :  20150727, Time     :  124114.374
------------------------------------------------------------
  Evaluating new KS density.
  Integration grid: deviation in total charge (<rho> - N_e) =   1.456826E-09
  Pulay mixing of updated and previous charge densities.

  Evaluating partitioned Hartree potential by multipole expansion.
  | Analytical far-field extrapolation by fixed multipoles:
  | Hartree multipole sum: apparent total charge =  -0.498835E-05
  Summing up the Hartree potential.
  Time summed over all CPUs for potential: real work        2.899 s, elapsed        2.906 s
  | RMS charge density error from multipole expansion :   0.182016E-01

  Integrating Hamiltonian matrix: batch-based integration.
  Time summed over all CPUs for integration: real work        8.923 s, elapsed        9.048 s

  Updating Kohn-Sham eigenvalues, eigenvectors, occupation numbers, and Fermi level.
  Solving generalized eigenproblem
  Updating Kohn-Sham eigenvalues and eigenfunctions.
  Solving real generalised eigenvalue problem by standard LAPACK (fast)
  Determining occupation numbers for Kohn-Sham eigenstates.
  | Chemical potential (Fermi level) in eV                 : -.18086076E+01
  | Error in electron count due to remaining E_F inaccuracy: 0.00000000E+00
  | Maximum occupation number of highest empty state:  0.00E+00

  Highest occupied state (VBM) at     -1.80860763 eV
  | Occupation number:      1.00000000

  Lowest unoccupied state (CBM) at    -1.80860763 eV
  | Occupation number:      1.00000000

  Overall HOMO-LUMO gap:      0.00000000 eV.

  Total energy components:
  | Sum of eigenvalues            :        -210.29784545 Ha       -5722.49553207 eV
  | XC energy correction          :         -46.90497029 Ha       -1276.34918147 eV
  | XC potential correction       :          59.96460533 Ha        1631.71993205 eV
  | Free-atom electrostatic energy:        -178.41800626 Ha       -4855.00096996 eV
  | Hartree energy correction     :          -7.63208067 Ha        -207.67948169 eV
  | van der Waals energy corr.    :           0.00000000 Ha           0.00000000 eV
  | Entropy correction            :          -0.00010367 Ha          -0.00282095 eV
  | ---------------------------
  | Total energy                  :        -383.28829734 Ha      -10429.80523314 eV
  | Total energy, T -> 0          :        -383.28840100 Ha      -10429.80805409 eV  <-- do not rely on this value for anything but (periodic) metals
  | Electronic free energy        :        -383.28850467 Ha      -10429.81087504 eV

  Derived energy quantities:
  | Kinetic energy                :         382.44973537 Ha       10406.98680121 eV
  | Electrostatic energy          :        -718.83306242 Ha      -19560.44285288 eV
  | Energy correction for multipole
  | error in Hartree potential    :          -0.00647046 Ha          -0.17607009 eV
  | Sum of eigenvalues per atom                           :        -357.65597075 eV
  | Total energy (T->0) per atom                          :        -651.86300338 eV  <-- do not rely on this value for anything but (periodic) metals
  | Electronic free energy per atom                       :        -651.86317969 eV

  Self-consistency convergence accuracy:
  | Change of charge density      : 0.6141E-02
  | Change of sum of eigenvalues  : -.1629E+01 eV
  | Change of total energy        : 0.5842E-03 eV

  End self-consistency iteration #     7       :  max(cpu_time)    wall_clock(cpu1)
  | Time for this iteration                    :        2.276 s           2.276 s
  | Charge density update                      :        0.704 s           0.704 s
  | Density mixing                             :        0.013 s           0.013 s
  | Hartree multipole update                   :        0.005 s           0.005 s
  | Hartree multipole summation                :        0.364 s           0.364 s
  | Integration                                :        1.133 s           1.133 s
  | Solution of K.-S. eqns.                    :        0.056 s           0.056 s
  | Total energy evaluation                    :        0.001 s           0.000 s
------------------------------------------------------------

------------------------------------------------------------
          Begin self-consistency iteration #    8

  Date     :  20150727, Time     :  124116.650
------------------------------------------------------------
  Evaluating new KS density.
  Integration grid: deviation in total charge (<rho> - N_e) =   2.842171E-14
  Pulay mixing of updated and previous charge densities.

  Evaluating partitioned Hartree potential by multipole expansion.
  | Analytical far-field extrapolation by fixed multipoles:
  | Hartree multipole sum: apparent total charge =  -0.497110E-05
  Summing up the Hartree potential.
  Time summed over all CPUs for potential: real work        2.899 s, elapsed        2.905 s
  | RMS charge density error from multipole expansion :   0.182298E-01

  Integrating Hamiltonian matrix: batch-based integration.
  Time summed over all CPUs for integration: real work        8.913 s, elapsed        9.041 s

  Updating Kohn-Sham eigenvalues, eigenvectors, occupation numbers, and Fermi level.
  Solving generalized eigenproblem
  Updating Kohn-Sham eigenvalues and eigenfunctions.
  Solving real generalised eigenvalue problem by standard LAPACK (fast)
  Determining occupation numbers for Kohn-Sham eigenstates.
  | Chemical potential (Fermi level) in eV                 : -.18167614E+01
  | Error in electron count due to remaining E_F inaccuracy: 0.15383250E-10
  | Maximum occupation number of highest empty state:  0.00E+00

  Highest occupied state (VBM) at     -1.81676142 eV
  | Occupation number:      1.00000000

  Lowest unoccupied state (CBM) at    -0.93838596 eV
  | Occupation number:      0.00000000

  Overall HOMO-LUMO gap:      0.87837547 eV.

  Total energy components:
  | Sum of eigenvalues            :        -210.33090668 Ha       -5723.39517403 eV
  | XC energy correction          :         -46.90268770 Ha       -1276.28706909 eV
  | XC potential correction       :          59.96152089 Ha        1631.63600023 eV
  | Free-atom electrostatic energy:        -178.41800626 Ha       -4855.00096996 eV
  | Hartree energy correction     :          -7.59821584 Ha        -206.75797285 eV
  | van der Waals energy corr.    :           0.00000000 Ha           0.00000000 eV
  | Entropy correction            :          -0.00010367 Ha          -0.00282095 eV
  | ---------------------------
  | Total energy                  :        -383.28829559 Ha      -10429.80518570 eV
  | Total energy, T -> 0          :        -383.28839926 Ha      -10429.80800665 eV  <-- do not rely on this value for anything but (periodic) metals
  | Electronic free energy        :        -383.28850293 Ha      -10429.81082760 eV

  Derived energy quantities:
  | Kinetic energy                :         382.46167661 Ha       10407.31173880 eV
  | Electrostatic energy          :        -718.84728450 Ha      -19560.82985542 eV
  | Energy correction for multipole
  | error in Hartree potential    :          -0.00660402 Ha          -0.17970441 eV
  | Sum of eigenvalues per atom                           :        -357.71219838 eV
  | Total energy (T->0) per atom                          :        -651.86300042 eV  <-- do not rely on this value for anything but (periodic) metals
  | Electronic free energy per atom                       :        -651.86317672 eV

  Self-consistency convergence accuracy:
  | Change of charge density      : 0.2504E-02
  | Change of sum of eigenvalues  : -.8996E+00 eV
  | Change of total energy        : 0.4744E-04 eV

  End self-consistency iteration #     8       :  max(cpu_time)    wall_clock(cpu1)
  | Time for this iteration                    :        2.276 s           2.276 s
  | Charge density update                      :        0.704 s           0.704 s
  | Density mixing                             :        0.014 s           0.014 s
  | Hartree multipole update                   :        0.005 s           0.005 s
  | Hartree multipole summation                :        0.364 s           0.364 s
  | Integration                                :        1.132 s           1.132 s
  | Solution of K.-S. eqns.                    :        0.057 s           0.057 s
  | Total energy evaluation                    :        0.000 s           0.000 s
------------------------------------------------------------

------------------------------------------------------------
          Begin self-consistency iteration #    9

  Date     :  20150727, Time     :  124118.926
------------------------------------------------------------
  Evaluating new KS density.
  Integration grid: deviation in total charge (<rho> - N_e) =   1.539746E-11
  Pulay mixing of updated and previous charge densities.

  Evaluating partitioned Hartree potential by multipole expansion.
  | Analytical far-field extrapolation by fixed multipoles:
  | Hartree multipole sum: apparent total charge =  -0.496701E-05
  Summing up the Hartree potential.
  Time summed over all CPUs for potential: real work        2.898 s, elapsed        2.906 s
  | RMS charge density error from multipole expansion :   0.182222E-01

  Integrating Hamiltonian matrix: batch-based integration.
  Time summed over all CPUs for integration: real work        8.927 s, elapsed        9.070 s

  Updating Kohn-Sham eigenvalues, eigenvectors, occupation numbers, and Fermi level.
  Solving generalized eigenproblem
  Updating Kohn-Sham eigenvalues and eigenfunctions.
  Solving real generalised eigenvalue problem by standard LAPACK (fast)
  Determining occupation numbers for Kohn-Sham eigenstates.
  | Chemical potential (Fermi level) in eV                 : -.18167475E+01
  | Error in electron count due to remaining E_F inaccuracy: 0.14658497E-10
  | Maximum occupation number of highest empty state:  0.00E+00

  Highest occupied state (VBM) at     -1.81674750 eV
  | Occupation number:      1.00000000

  Lowest unoccupied state (CBM) at    -0.93845962 eV
  | Occupation number:      0.00000000

  Overall HOMO-LUMO gap:      0.87828788 eV.

  Total energy components:
  | Sum of eigenvalues            :        -210.32986004 Ha       -5723.36669347 eV
  | XC energy correction          :         -46.90276882 Ha       -1276.28927650 eV
  | XC potential correction       :          59.96163505 Ha        1631.63910659 eV
  | Free-atom electrostatic energy:        -178.41800626 Ha       -4855.00096996 eV
  | Hartree energy correction     :          -7.59929489 Ha        -206.78733511 eV
[...]
   Van der Waals               : 0.273677E-02 0.168640E-02 0.206489E-02
   ----------------------------------------------------------------
   Total forces(   7)            : -.333647E+00 0.325653E+00 -.263372E+01
  atom #    8
   Hellmann-Feynman + Multipole  : -.446931E+01 0.194483E+01 -.923080E+01
   Pulay + GGA                   : 0.606914E+01 -.236414E+01 0.997745E+01
   Van der Waals               : 0.155471E-03 0.143530E-02 -.694704E-02
   ----------------------------------------------------------------
   Total forces(   8)            : 0.159998E+01 -.417868E+00 0.739702E+00
  atom #    9
   Hellmann-Feynman + Multipole  : -.241561E+00 -.203699E+00 -.559414E+00
   Pulay + GGA                   : 0.292373E-01 0.442781E-01 0.713326E-01
   Van der Waals               : 0.266903E-02 0.430912E-02 -.681926E-03
   ----------------------------------------------------------------
   Total forces(   9)            : -.209654E+00 -.155112E+00 -.488763E+00
  atom #   10
   Hellmann-Feynman + Multipole  : -.140602E+01 0.709086E+00 -.334790E+00
   Pulay + GGA                   : 0.113450E+00 -.627025E-01 0.197303E-01
   Van der Waals               : 0.132088E-02 0.221332E-02 0.213980E-03
   ----------------------------------------------------------------
   Total forces(  10)            : -.129125E+01 0.648597E+00 -.314845E+00
  atom #   11
   Hellmann-Feynman + Multipole  : -.142462E+01 -.205805E+01 -.127104E+02
   Pulay + GGA                   : 0.218114E+01 0.230064E+01 0.106645E+02
   Van der Waals               : -.502733E-02 -.181461E-02 0.179577E-03
   ----------------------------------------------------------------
   Total forces(  11)            : 0.751492E+00 0.240780E+00 -.204570E+01
  atom #   12
   Hellmann-Feynman + Multipole  : 0.530254E-01 0.742374E-01 0.484714E+00
   Pulay + GGA                   : 0.116389E+00 0.689092E-01 0.525530E-01
   Van der Waals               : -.965471E-03 -.123458E-02 -.961058E-03
   ----------------------------------------------------------------
   Total forces(  12)            : 0.168449E+00 0.141912E+00 0.536305E+00
  atom #   13
   Hellmann-Feynman + Multipole  : -.712096E+00 -.367084E+00 0.153835E+01
   Pulay + GGA                   : -.865626E-01 -.587366E-01 0.105318E+00
   Van der Waals               : -.194094E-02 0.258516E-03 -.246404E-03
   ----------------------------------------------------------------
   Total forces(  13)            : -.800600E+00 -.425562E+00 0.164343E+01
  atom #   14
   Hellmann-Feynman + Multipole  : -.121246E+02 -.266606E+01 0.291115E+01
   Pulay + GGA                   : 0.126437E+02 0.405706E+01 -.383055E+01
   Van der Waals               : -.642177E-03 -.333844E-02 -.322476E-02
   ----------------------------------------------------------------
   Total forces(  14)            : 0.518491E+00 0.138765E+01 -.922619E+00
  atom #   15
   Hellmann-Feynman + Multipole  : -.604006E-01 -.183411E+00 0.219021E+00
   Pulay + GGA                   : 0.800883E-01 -.358415E-01 0.236248E-01
   Van der Waals               : -.350195E-03 -.439973E-02 -.122800E-02
   ----------------------------------------------------------------
   Total forces(  15)            : 0.193375E-01 -.223652E+00 0.241417E+00
  atom #   16
   Hellmann-Feynman + Multipole  : -.725218E+00 -.126982E+01 0.577528E+00
   Pulay + GGA                   : 0.572929E-01 0.102655E+00 -.597102E-01
   Van der Waals               : 0.961196E-03 -.608901E-02 0.681644E-03
   ----------------------------------------------------------------
   Total forces(  16)            : -.666964E+00 -.117325E+01 0.518499E+00
  Timings for vdw_correction_hirshfeld (Tkatchenko-Scheffler 2009):
  | CPU time:        5.988 s, Wall clock time:        5.988 s.
  Removing unitary transformations (pure translations, rotations) from forces on atoms.
  Atomic forces before filtering:
  | Net force on center of mass :  0.848694E-03 -.614266E-02 -.124147E-01 eV/A
  | Net torque on center of mass:  0.489271E-02 -.469611E-03 -.816179E-02 eV
  Atomic forces after filtering:
  | Net force on center of mass :  -.267609E-15 0.000000E+00 -.178406E-15 eV/A
  | Net torque on center of mass:  0.127451E-14 0.169935E-14 -.113290E-14 eV
 
  Energy and forces in a compact form:
  | Total energy uncorrected      :         -0.104299068460673E+05 eV
  | Total energy corrected        :         -0.104299096670153E+05 eV  <-- do not rely on this value for anything but (periodic) metals
  | Electronic free energy        :         -0.104299124879632E+05 eV
  Total atomic forces (unitary forces cleaned) [eV/Ang]:
  |   1         -0.144496198911012E+01          0.630947227193871E+00         -0.907957477333075E-01
  |   2          0.892657302130415E-01         -0.512720603774931E+00          0.184241167957427E+00
  |   3          0.933744514728503E+00         -0.339750476931287E-02          0.510786217022543E-01
  |   4          0.146113243473169E+00          0.271673562689868E-01         -0.281658845874563E+00
  |   5          0.378670151050239E+00         -0.926217317400063E+00          0.254356998214429E+01
  |   6          0.142601889411231E+00          0.430370424131834E+00          0.312606951014481E+00
  |   7         -0.333776744139168E+00          0.325691552110804E+00         -0.263290494622899E+01
  |   8          0.160004172317487E+01         -0.417342080360562E+00          0.740508049436677E+00
  |   9         -0.209637909842964E+00         -0.154532830061379E+00         -0.487994685957455E+00
  |  10         -0.129112013630960E+01          0.649214569025983E+00         -0.314025154547955E+00
  |  11          0.751397885553799E+00          0.241383914761972E+00         -0.204499647241612E+01
  |  12          0.168309110429595E+00          0.142612341952348E+00          0.536958491260086E+00
  |  13         -0.800647441338429E+00         -0.424975868018892E+00          0.164415606668216E+01
  |  14          0.518219571827325E+00          0.138796660372398E+01         -0.921947575554281E+00
  |  15          0.191135682964657E-01         -0.223234929809227E+00          0.242090210910961E+00
  |  16         -0.667333167417962E+00         -0.117293285497542E+01          0.519113887204343E+00
 
  ------------------------------------ 
  Start decomposition of the XC Energy 
  ------------------------------------ 
  Hartree-Fock part   :          0.000000000 Ha              0.000000000 eV
  ------------------------------------ 
  X Energy            :        -45.237811984 Ha          -1230.983495825 eV
  C Energy GGA        :         -1.665263581 Ha            -45.314127584 eV
  Total XC Energy     :        -46.903075564 Ha          -1276.297623410 eV
  LDA X and C from self-consistent density 
  X Energy LDA        :        -40.794933988 Ha          -1110.086634396 eV
  C Energy LDA        :         -3.341686226 Ha            -90.931908775 eV
  ------------------------------------ 
  End decomposition of the XC Energy 
  ------------------------------------ 
  Performing Hirshfeld analysis of fragment charges and moments.
  ----------------------------------------------------------------------
  | Atom     1: O
  |   Hirshfeld charge        :     -0.14073334
  |   Free atom volume        :     23.95238533
  |   Hirshfeld volume        :     22.22160451
  |   Hirshfeld dipole vector :      0.00909384       0.03717449       0.00671793
  |   Hirshfeld dipole moment :      0.03885578
  |   Hirshfeld second moments:      0.06897397      -0.00736931      -0.00885560
  |                                 -0.00736931       0.02981853      -0.02454307
  |                                 -0.00885560      -0.02454307       0.05391997
  ----------------------------------------------------------------------
  | Atom     2: H
  |   Hirshfeld charge        :      0.11491519
  |   Free atom volume        :     10.44207651
  |   Hirshfeld volume        :      9.54170013
  |   Hirshfeld dipole vector :      0.00178923       0.01612288      -0.01279174
  |   Hirshfeld dipole moment :      0.02065859
  |   Hirshfeld second moments:      0.05247463       0.02083568       0.00098443
  |                                  0.02083568       0.03032012       0.01244657
  |                                  0.00098443       0.01244657       0.05856392
  ----------------------------------------------------------------------
  | Atom     3: H
  |   Hirshfeld charge        :      0.09634545
  |   Free atom volume        :     10.44207651
  |   Hirshfeld volume        :     10.17170648
  |   Hirshfeld dipole vector :      0.01421214       0.01536951      -0.00810676
  |   Hirshfeld dipole moment :      0.02244830
  |   Hirshfeld second moments:      0.01646778      -0.01573939      -0.00075571
  |                                 -0.01573939       0.04827165       0.00742469
  |                                 -0.00075571       0.00742469       0.03908689
  ----------------------------------------------------------------------
  | Atom     4: H
  |   Hirshfeld charge        :      0.07962581
  |   Free atom volume        :     10.44207651
  |   Hirshfeld volume        :     14.63642024
  |   Hirshfeld dipole vector :     -0.00529083       0.01169803      -0.02238248
  |   Hirshfeld dipole moment :      0.02580334
  |   Hirshfeld second moments:     -0.00878399       0.00374779       0.01644582
  |                                  0.00374779      -0.01551072       0.00482832
  |                                  0.01644582       0.00482832      -0.10220762
  ----------------------------------------------------------------------
  | Atom     5: O
  |   Hirshfeld charge        :     -0.21183420
  |   Free atom volume        :     23.95238533
  |   Hirshfeld volume        :     21.63164986
  |   Hirshfeld dipole vector :      0.03326784       0.00660136      -0.01996750
  |   Hirshfeld dipole moment :      0.03935770
  |   Hirshfeld second moments:      0.01487852      -0.00211314       0.03221286
  |                                 -0.00211314       0.06491184       0.00503089
  |                                  0.03221286       0.00503089       0.06882639
  ----------------------------------------------------------------------
  | Atom     6: H
  |   Hirshfeld charge        :      0.10537085
  |   Free atom volume        :     10.44207651
  |   Hirshfeld volume        :      9.23331170
  |   Hirshfeld dipole vector :      0.02193514       0.03161597       0.00363850
  |   Hirshfeld dipole moment :      0.03865176
  |   Hirshfeld second moments:      0.05069007      -0.02112581       0.00518557
  |                                 -0.02112581       0.04590974      -0.01656872
  |                                  0.00518557      -0.01656872       0.05749086
  ----------------------------------------------------------------------
  | Atom     7: H
  |   Hirshfeld charge        :      0.13547273
  |   Free atom volume        :     10.44207651
  |   Hirshfeld volume        :      9.09452723
  |   Hirshfeld dipole vector :     -0.01289864       0.00899183      -0.08549237
  |   Hirshfeld dipole moment :      0.08692626
  |   Hirshfeld second moments:      0.06372074       0.00103989       0.01053140
  |                                  0.00103989       0.08221365       0.00869567
  |                                  0.01053140       0.00869567       0.05992193
  ----------------------------------------------------------------------
  | Atom     8: O
  |   Hirshfeld charge        :     -0.23979766
  |   Free atom volume        :     23.95238533
  |   Hirshfeld volume        :     22.85587885
  |   Hirshfeld dipole vector :     -0.01270266      -0.01699223       0.03259900
  |   Hirshfeld dipole moment :      0.03889458
  |   Hirshfeld second moments:      0.04648571      -0.02014039       0.00969757
  |                                 -0.02014039       0.02270646       0.03980576
  |                                  0.00969757       0.03980576      -0.02164729
  ----------------------------------------------------------------------
  | Atom     9: H
  |   Hirshfeld charge        :      0.08068303
  |   Free atom volume        :     10.44207651
  |   Hirshfeld volume        :     10.59946120
  |   Hirshfeld dipole vector :      0.00031893       0.02999615       0.02382141
  |   Hirshfeld dipole moment :      0.03830575
  |   Hirshfeld second moments:      0.05216229      -0.00629131       0.00482051
  |                                 -0.00629131       0.02569970       0.00561497
  |                                  0.00482051       0.00561497      -0.00335116
  ----------------------------------------------------------------------
  | Atom    10: H
  |   Hirshfeld charge        :      0.10243330
  |   Free atom volume        :     10.44207651
  |   Hirshfeld volume        :     11.72707916
  |   Hirshfeld dipole vector :      0.05044910      -0.03563808      -0.00167123
  |   Hirshfeld dipole moment :      0.06178978
  |   Hirshfeld second moments:      0.02184265       0.00089612       0.00171171
  |                                  0.00089612       0.01970060       0.02505172
  |                                  0.00171171       0.02505172       0.00663983
  ----------------------------------------------------------------------
  | Atom    11: O
  |   Hirshfeld charge        :     -0.22477501
  |   Free atom volume        :     23.95238533
  |   Hirshfeld volume        :     22.31789383
  |   Hirshfeld dipole vector :     -0.00687871       0.00939353      -0.00023628
  |   Hirshfeld dipole moment :      0.01164521
  |   Hirshfeld second moments:      0.05000555       0.02129533      -0.00454074
  |                                  0.02129533       0.02139930       0.00798769
  |                                 -0.00454074       0.00798769       0.03744178
  ----------------------------------------------------------------------
  | Atom    12: H
  |   Hirshfeld charge        :      0.09791446
  |   Free atom volume        :     10.44207651
  |   Hirshfeld volume        :     11.99517183
  |   Hirshfeld dipole vector :      0.04001038       0.03588048       0.00053645
  |   Hirshfeld dipole moment :      0.05374502
  |   Hirshfeld second moments:      0.01529942       0.00689524      -0.00734122
  |                                  0.00689524       0.00396711      -0.00056716
  |                                 -0.00734122      -0.00056716       0.01372777
  ----------------------------------------------------------------------
  | Atom    13: H
  |   Hirshfeld charge        :      0.07752196
  |   Free atom volume        :     10.44207651
  |   Hirshfeld volume        :     13.25102561
  |   Hirshfeld dipole vector :     -0.02685465       0.01206813       0.00911189
  |   Hirshfeld dipole moment :      0.03081946
  |   Hirshfeld second moments:     -0.01138690      -0.00712683       0.01846405
  |                                 -0.00712683      -0.02925872       0.02575693
  |                                  0.01846405       0.02575693      -0.00706343
  ----------------------------------------------------------------------
  | Atom    14: O
  |   Hirshfeld charge        :     -0.26795133
  |   Free atom volume        :     23.95238533
  |   Hirshfeld volume        :     22.72920782
  |   Hirshfeld dipole vector :      0.03119592      -0.00940020      -0.02966676
  |   Hirshfeld dipole moment :      0.04406434
  |   Hirshfeld second moments:      0.00673257       0.00393120       0.03125684
  |                                  0.00393120       0.04591182      -0.02444168
  |                                  0.03125684      -0.02444168      -0.01936704
  ----------------------------------------------------------------------
  | Atom    15: H
  |   Hirshfeld charge        :      0.08197038
  |   Free atom volume        :     10.44207651
  |   Hirshfeld volume        :      9.68658737
  |   Hirshfeld dipole vector :      0.04671137      -0.02204259       0.00195690
  |   Hirshfeld dipole moment :      0.05168808
  |   Hirshfeld second moments:      0.02949881       0.01511908      -0.00125253
  |                                  0.01511908       0.05825936      -0.00088115
  |                                 -0.00125253      -0.00088115       0.03518222
  ----------------------------------------------------------------------
  | Atom    16: H
  |   Hirshfeld charge        :      0.11288293
  |   Free atom volume        :     10.44207651
  |   Hirshfeld volume        :      9.72233509
  |   Hirshfeld dipole vector :      0.02447147       0.07011579      -0.03705758
  |   Hirshfeld dipole moment :      0.08299603
  |   Hirshfeld second moments:      0.05891297      -0.00788998       0.01034549
  |                                 -0.00788998       0.05866571      -0.00160122
  |                                  0.01034549      -0.00160122       0.03640104
  ----------------------------------------------------------------------


------------------------------------------------------------------------------
  Final output of selected total energy values:

  The following output summarizes some interesting total energy values
  at the end of a run (AFTER all relaxation, molecular dynamics, etc.).

  | Total energy of the DFT / Hartree-Fock s.c.f. calculation      :         -10429.906846067 eV
  | Final zero-broadening corrected energy (caution - metals only) :         -10429.909667015 eV
  | For reference only, the value of 1 Hartree used in FHI-aims is :             27.211384500 eV

  Before relying on these values, please be sure to understand exactly which
  total energy value is referred to by a given number. Different objects may
  all carry the same name 'total energy'. Definitions:

  Total energy of the DFT / Hartree-Fock s.c.f. calculation:
  | Note that this energy does not include ANY quantities calculated after the
  | s.c.f. cycle, in particular not ANY RPA, MP2, etc. many-body perturbation terms.

  Final zero-broadening corrected energy:
  | For metallic systems only, a broadening of the occupation numbers at the Fermi
  | level can be extrapolated back to zero broadening by an electron-gas inspired
  | formula. For all systems that are not real metals, this value can be
  | meaningless and should be avoided.

------------------------------------------------------------------------------

------------------------------------------------------------
          Leaving FHI-aims.
          Date     :  20150727, Time     :  124141.672

          Computational steps:
          | Number of self-consistency cycles          :           16

          Detailed time accounting                     :  max(cpu_time)    wall_clock(cpu1)
          | Total time                                 :       43.997 s          44.013 s
          | Preparation time                           :        0.173 s           0.633 s
          | Grid partitioning                          :        0.166 s           0.166 s
          | Preloading free-atom quantities on grid    :        0.014 s           0.013 s
          | Free-atom superposition energy             :        0.073 s           0.074 s
          | Total time for integrations                :       19.928 s          19.928 s
          | Total time for solution of K.-S. equations :        1.116 s           1.116 s
          | Total time for density & force components  :       14.380 s          14.398 s
          | Total time for mixing                      :        0.217 s           0.219 s
          | Total time for Hartree multipole update    :        0.083 s           0.082 s
          | Total time for Hartree multipole sum       :        7.041 s           7.042 s
          | Total time for total energy evaluation     :        0.008 s           0.000 s
          | Total time for scaled ZORA corrections     :        0.000 s           0.000 s
          | Total time for TS (2009) vdW correction    :        0.058 s           0.059 s

          Have a nice day.
------------------------------------------------------------
