  MPI-parallelism will be employed.
------------------------------------------------------------
          Invoking FHI-aims ...
          Version 081213
          Compiled on 2013/08/29 at 17:41:06 on host generoso.

          When using FHI-aims, please cite the following reference:

          Volker Blum, Ralf Gehrke, Felix Hanke, Paula Havu,
          Ville Havu, Xinguo Ren, Karsten Reuter, and Matthias Scheffler,
          'Ab Initio Molecular Simulations with Numeric Atom-Centered Orbitals: FHI-aims',
          Computer Physics Communications 180, 2175-2196 (2009)

          For any questions about FHI-aims, please visit the aimsclub website
          with its forums and wiki. Contributions to both the forums and the
          wiki are warmly encouraged - they are for you, and everyone is welcome there.

------------------------------------------------------------

  Date     :  20150727, Time     :  120917.157
  Time zero on CPU 1             :   0.429920000000000E-01  s.
  Internal wall clock time zero  :           207230957.157  s.

  Using        8 parallel tasks.
  Task        0 on host gen59 reporting.
  Task        1 on host gen59 reporting.
  Task        2 on host gen59 reporting.
  Task        3 on host gen59 reporting.
  Task        4 on host gen59 reporting.
  Task        5 on host gen59 reporting.
  Task        6 on host gen59 reporting.
  Task        7 on host gen59 reporting.

  Performing system and environment tests:
  | Environment variable OMP_NUM_THREADS correctly set to 1.
  | Checking for scalapack...
  | No scalapack compiled in.

  Obtaining array dimensions for all initial allocations:
  
  -----------------------------------------------------------------------
  Parsing control.in (first pass over file, find array dimensions only).
  The contents of control.in will be repeated verbatim below
  unless switched off by setting 'verbatim_writeout .false.' .
  in the first line of control.in .
  -----------------------------------------------------------------------
  
  #########################################################################################
  #
  #  Volker Blum, FHI 2008 : Test run input file control.in
  #
  #########################################################################################
  #
  #  Physical model
  #
    xc                 rpbe
    spin               none
    relativistic       atomic_zora scalar
    charge             0.
   vdw_correction_hirshfeld
  #
  #  SCF convergence
  #
    occupation_type    gaussian 0.01
    mixer              pulay
      n_max_pulay        10
      charge_mix_param   0.1
    sc_accuracy_rho    5E-5
    sc_accuracy_eev    5E-3
    sc_accuracy_etot   5E-6
    sc_iter_limit      3000
  #
  #  Eigenvalue solver
  #
    KS_method          lapack
      empty_states       8
      basis_threshold    0.e-5
  #
  #  Efficiency
  #
  #   all previous settings are now default, except stratmann still
  #   undecided. Continue to handle stratmann with care, if at all.
  #
  #  partition_type stratmann
    partition_type rho_r2
  #  hartree_partition_type stratmann
  #
  #  Oprions for large clusters (100's of atoms: memory saving / better scaling)
  #
  # for periodic systems:
  #
    density_update_method orbital
    packed_matrix_format none
  #  k_grid 6 6 6
  #  output k_eigenvalue 1
  #  distributed_spline_storage .true.
  #
  #  Relaxation
  #
  #  relax_geometry   bfgs 5.e-3
    sc_accuracy_forces 5.E-4
    final_forces_cleaned .true.
  #
  #  Output options
  #
  #  output mulliken
    output Hirshfeld
  #  output dipole
  
  #harmonic_length_scale 0.001
  
  ################################################################################
  #
  #  FHI-aims code project
  #  VB, Fritz-Haber Institut, 2007
  #
  #  Suggested "safe" defaults for H atom (to be pasted into control.in file)
  #  Basis constructed for a non-relativistic H2 molecule using the
  #  PW-LDA functional.
  #
  ################################################################################
    species        H
  #     global species definitions
      nucleus             1
      cut_pot             4.0  2.0  1.0
      cut_free_atom       finite 8.0
      logarithmic         0.00010000 100.00  1.0123
      basis_dep_cutoff    1d-4  # 1d-4 is safe default - please check 5d-4 if you wish!
      radial_base         24 7.0
      radial_multiplier   2
      angular_grids       specified
        division   0.2783  110
        division   0.3822  194
        division   0.5626  302
  #      division   0.5922  434
  #      division   0.6227  590
  #      division   0.7206  770
        outer_grid  302
      l_hartree           4
  ################################################################################
  #
  #  Definition of "minimal" basis
  #
  ################################################################################
  #     valence basis states
      valence      1  s   1.
  #     ion occupancy
      ion_occ      1  s   0.5
  ################################################################################
  #
  #  Suggested additional basis functions. For production calculations,
  #  uncomment them one after another (the most important basis functions are
  #  listed first).
  #
  ################################################################################
  #  "First tier" - improvements: -1014.90 meV to -62.69 meV
       hydro 2 s 2.1
       hydro 2 p 3.5
  #  "Second tier" - improvements: -12.89 meV to -1.83 meV
       hydro 1 s 0.85
       hydro 2 p 3.7
       hydro 2 s 1.2
       hydro 3 d 7
  #  "Third tier" - improvements: -0.25 meV to -0.12 meV
  #     hydro 4 f 11.2
  #     hydro 3 p 4.8
  #     hydro 4 d 9
  #     hydro 3 s 3.2
  
  ################################################################################
  #
  #  FHI-aims code project
  #  VB, Fritz-Haber Institut, 2007
  #
  #  Suggested "safe" defaults for O atom (to be pasted into control.in file)
  #  All values have been tested for a non-relativistic, non-spinpolarized O2
  #  molecule using the PW-LDA functional. Validity for PBE is expected.
  #
  #  Constructed for dimers: 1.0 A, 1.208 A, 1.5 A, 2.0 A, 3.0 A
  #
  ################################################################################
    species        O
  #     global species definitions
      nucleus             8
      mass                15.9994
      l_hartree           4
      cut_pot             4.0  2.0  1.0
      cut_free_atom       finite 8.0
      basis_dep_cutoff    1d-4  # 1d-4 is safe default - please check 5d-4 if you wish!
      logarithmic         0.00010000 100.00  1.0123
      radial_base         36 7.0
      radial_multiplier   2
       angular_grids specified
        division   0.4087  110
        division   0.5181  194
        division   0.6184  302
  #      division   0.7315  434
  #      division   0.7934  590
  #      division   0.9656  770
  #      division   1.4041  974
  #      outer_grid 974
        outer_grid 302
  ################################################################################
  #
  #  Definition of "minimal" basis
  #
  ################################################################################
  #     valence basis states
      valence      2  s   2.
      valence      2  p   4.
  #     ion occupancy
      ion_occ      2  s   1.
      ion_occ      2  p   3.
  ################################################################################
  #
  #  Suggested additional basis functions. For production calculations,
  #  uncomment them one after another (the most important basis functions are
  #  listed first).
  #
  ################################################################################
  #  "First tier" - improvements: -699.05 meV to -159.38 meV
       hydro 2 p 1.8
       hydro 3 d 7.6
       hydro 3 s 6.4
  #  "Second tier" - improvements: -49.91 meV to -5.39 meV
       hydro 4 f 11.6
       hydro 3 p 6.2
       hydro 3 d 5.6
       hydro 5 g 17.6
       hydro 1 s 0.75
  #  "Third tier" - improvements: -2.83 meV to -0.50 meV
  #     ionic 2 p auto
  #     hydro 4 f 10.8
  #     hydro 4 d 4.7
  #     hydro 2 s 6.8
  #  "Fourth tier" - improvements: -0.40 meV to -0.12 meV
  #     hydro 3 p 5
  #     hydro 3 s 3.3
  #     hydro 5 g 15.6
  #     hydro 4 f 17.6
  #     hydro 4 d 14
  # Further basis functions - -0.08 meV and below
  #     hydro 3 s 2.1
  #     hydro 4 d 11.6
  #     hydro 3 p 16
  #     hydro 2 s 17.2
  
  
  -----------------------------------------------------------------------
  Completed first pass over input file control.in .
  -----------------------------------------------------------------------
  
  
  -----------------------------------------------------------------------
  Parsing geometry.in (first pass over file, find array dimensions only).
  The contents of geometry.in will be repeated verbatim below
  unless switched off by setting 'verbatim_writeout .false.' .
  in the first line of geometry.in .
  -----------------------------------------------------------------------
  
  atom      -4.053030000      0.065001000     -1.525160000  O
  atom      -4.566710000      0.974813000     -1.912820000  H
  atom      -3.067820000      0.330172000     -1.477310000  H
  atom      -4.370360000     -0.049164000     -0.572274000  H
  atom      -4.581760000     -0.256435000      0.939478000  O
  atom      -4.349860000      0.471090000      1.504340000  H
  atom      -5.393870000     -0.726611000      1.228070000  H
  atom      -5.293160000      2.192130000     -2.328800000  O
  atom      -4.829300000      2.988660000     -1.973850000  H
  atom      -5.428570000      2.328640000     -3.235170000  H
  atom      -4.066610000      4.258280000     -0.900064000  O
  atom      -3.224110000      3.876870000     -0.569443000  H
  atom      -3.737450000      5.116530000     -1.322720000  H
  atom      -5.628340000      3.730740000      1.385610000  O
  atom      -6.090650000      4.418470000      1.860350000  H
  atom      -5.158540000      4.200260000      0.615875000  H
  
  -----------------------------------------------------------------------
  Completed first pass over input file geometry.in .
  -----------------------------------------------------------------------
  
 
  Basic array size parameters: 
  | Number of species                 :        2
  | Number of atoms                   :       16
  | Max. basis fn. angular momentum   :        4
  | Max. atomic/ionic basis occupied n:        2
  | Max. number of basis fn. types    :        2
  | Max. radial fns per species/type  :        8
  | Max. logarithmic grid size        :     1301
  | Max. radial integration grid size :       73
  | Max. angular integration grid size:      302
  | Max. angular grid division number :        8
  | Radial grid for Hartree potential :     1301
  | Number of spin channels           :        1

------------------------------------------------------------
          Reading file control.in.
------------------------------------------------------------
  XC: Using RPBE gradient-corrected functionals.
  Spin treatment: No spin polarisation.
  Scalar relativistic treatment of kinetic energy: on-site free-atom approximation to ZORA.
  Charge =   0.000000E+00: Neutral system requested explicitly.
  Using non-empirical van der Waals correction (Hirshfeld partitioning):
  Occupation type: Gaussian broadening, width =   0.100000E-01 eV.
  Using pulay charge density mixing.
  Pulay mixing - number of memorized iterations:   10
  Charge density mixing - mixing parameter:     0.1000
  Convergence accuracy of self-consistent charge density: 0.5000E-04
  Convergence accuracy of sum of eigenvalues: 0.5000E-02
  Convergence accuracy of total energy: 0.5000E-05
  Maximum number of s.-c. iterations  :  3000
  Kohn-Sham eigenvalues and eigenfunctions calculated by lapack diagonalisation (D&C).
  Number of empty states per atom:        8
  Threshold for basis singularities: 0.0000E+00
  Partition function in integrals calculations: rho / r^2
 Using packed matrix format           0
  Convergence accuracy of forces: 0.5000E-03
  Cleaning forces before final output.
  Hirshfeld charge analysis will be performed.
 
  Reading configuration options for species H                   .
  | Found nuclear charge :   1.0000
  | Found cutoff potl. onset [A], width [A], scale factor :    4.00000    2.00000    1.00000
  | Found cutoff specification for free atom: Cutoff potential begins at    8.00000 A.
  | Found logarithmic grid data [bohr] : 0.1000E-03 0.1000E+03 0.1012E+01
  | Threshold for basis-dependent cutoff potential is   0.100000E-03
  | Found data for basic radial integration grid :    24 points, outermost radius =    7.000 A
  | Found multiplier for basic radial grid :   2
  | Found angular grid specification: user-specified.
  | Specified grid contains     4 separate shells.
  | Check grid settings after all constraints further below.
  | Found l_max for Hartree potential  :   4
  | Found free-atom valence shell :  1 s   1.000
  | No ionic wave fns used. Skipping ion_occ.
  | Found hydrogenic basis function :  2 s   2.100
  | Found hydrogenic basis function :  2 p   3.500
  | Found hydrogenic basis function :  1 s   0.850
  | Found hydrogenic basis function :  2 p   3.700
  | Found hydrogenic basis function :  2 s   1.200
  | Found hydrogenic basis function :  3 d   7.000
  Species H                   : Missing cutoff potential type.
  Defaulting to exp(1/x)/(1-x)^2 type cutoff potential.
  Species H : On-site basis accuracy parameter (for Gram-Schmidt orthonormalisation) not specified.
  Using default value basis_acc =  0.1000000E-03.
  Species H                   : Using default innermost maximum threshold i_radial=  2 for radial functions.
  Species H                   : Basic radial grid will be enhanced according to radial_multiplier =   2, to contain    49 grid points.
 
  Reading configuration options for species O                   .
  | Found nuclear charge :   8.0000
  | Found atomic mass :    15.9994000000000      amu
  | Found l_max for Hartree potential  :   4
  | Found cutoff potl. onset [A], width [A], scale factor :    4.00000    2.00000    1.00000
  | Found cutoff specification for free atom: Cutoff potential begins at    8.00000 A.
  | Threshold for basis-dependent cutoff potential is   0.100000E-03
  | Found logarithmic grid data [bohr] : 0.1000E-03 0.1000E+03 0.1012E+01
  | Found data for basic radial integration grid :    36 points, outermost radius =    7.000 A
  | Found multiplier for basic radial grid :   2
  | Found angular grid specification: user-specified.
  | Specified grid contains     4 separate shells.
  | Check grid settings after all constraints further below.
  | Found free-atom valence shell :  2 s   2.000
  | Found free-atom valence shell :  2 p   4.000
  | No ionic wave fns used. Skipping ion_occ.
  | No ionic wave fns used. Skipping ion_occ.
  | Found hydrogenic basis function :  2 p   1.800
  | Found hydrogenic basis function :  3 d   7.600
  | Found hydrogenic basis function :  3 s   6.400
  | Found hydrogenic basis function :  4 f  11.600
  | Found hydrogenic basis function :  3 p   6.200
  | Found hydrogenic basis function :  3 d   5.600
  | Found hydrogenic basis function :  5 g  17.600
  | Found hydrogenic basis function :  1 s   0.750
  Species O                   : Missing cutoff potential type.
  Defaulting to exp(1/x)/(1-x)^2 type cutoff potential.
  Species O : On-site basis accuracy parameter (for Gram-Schmidt orthonormalisation) not specified.
  Using default value basis_acc =  0.1000000E-03.
  Species O                   : Using default innermost maximum threshold i_radial=  2 for radial functions.
  Species O                   : Basic radial grid will be enhanced according to radial_multiplier =   2, to contain    73 grid points.
 
  Finished reading input file 'control.in'. Consistency checks are next.
 
  Target number of points in a grid batch is not set. Defaulting to  100
  Method for grid partitioning is not set. Defaulting to parallel hash+maxmin partitioning.
  Batch size limit is not set. Defaulting to    200
  By default, will store active basis functions for each batch.
  If in need of memory, prune_basis_once .false. can be used to disable this option.
  communication_type for Hartree potential was not specified.
  Defaulting to calc_hartree .
  Pulay mixer: Number of initial linear mixing iterations not set.
  Defaulting to    0 iterations.
  Work space size for distributed Hartree potential not set.
  Defaulting to   0.200000E+03 MB.
  Algorithm-dependent basis array size parameters:
  | n_max_pulay                         :       10
  Geometry relaxation not requested: no relaxation will be performed.
  Handling of forces: Unphysical translation and rotation will be removed from forces.
  No accuracy limit for integral partition fn. given. Defaulting to 0.1000E-14.
  No threshold value for u(r) in integrations given. Defaulting to 0.1000E-05.
  No accuracy for occupation numbers given. Defaulting to 0.1000E-07.
  No threshold value for occupation numbers given. Defaulting to 0.0000E+00.
  No accuracy for fermi level given. Defaulting to 0.1000E-19.
  Maximum # of iterations to find E_F not set. Defaulting to  200.
  Will not use alltoall communication since running on < 1024 CPUs.
  Partitioning for Hartree potential was not defined. Using partition_type for integrals.
  | Reporting present value of keyword multip_moments_threshold  :       0.10000000E-09
  | This value may affect high angular momentum components of the Hartree potential in periodic systems.
  No q(lm)/r^(l+1) cutoff set for long-range Hartree potential.
  | Using default value of  0.100000E-09 .
  | Verify using the multipole_threshold keyword.
  Defaulting to new monopole extrapolation.
  Density update method: Loop over occupied states selected for charge density update.
------------------------------------------------------------


------------------------------------------------------------
          Reading geometry description geometry.in.
------------------------------------------------------------
  Input structure read successfully.
  The structure contains       16 atoms,  and a total of         51.000 electrons.

  Input geometry:
  | No unit cell requested.
  | Atomic structure:
  |       Atom                x [A]            y [A]            z [A]
  |    1: Species O             -4.053030         0.065001        -1.525160
  |    2: Species H             -4.566710         0.974813        -1.912820
  |    3: Species H             -3.067820         0.330172        -1.477310
  |    4: Species H             -4.370360        -0.049164        -0.572274
  |    5: Species O             -4.581760        -0.256435         0.939478
  |    6: Species H             -4.349860         0.471090         1.504340
  |    7: Species H             -5.393870        -0.726611         1.228070
  |    8: Species O             -5.293160         2.192130        -2.328800
  |    9: Species H             -4.829300         2.988660        -1.973850
  |   10: Species H             -5.428570         2.328640        -3.235170
  |   11: Species O             -4.066610         4.258280        -0.900064
  |   12: Species H             -3.224110         3.876870        -0.569443
  |   13: Species H             -3.737450         5.116530        -1.322720
  |   14: Species O             -5.628340         3.730740         1.385610
  |   15: Species H             -6.090650         4.418470         1.860350
  |   16: Species H             -5.158540         4.200260         0.615875
  |

  | The smallest distance between any two atoms is         0.92654057 AA.
  |
  | The first atom of this pair is atom number                      8 .
  | The second atom of this pair is atom number                    10 .

  Structure-dependent array size parameters: 
  | Maximum number of distinct radial functions  :       18
  | Maximum number of basis functions            :      360
  | Number of Kohn-Sham states (occupied + empty):       90
------------------------------------------------------------

------------------------------------------------------------
          Preparing all fixed parts of the calculation.
------------------------------------------------------------
  Determining machine precision:
    2.225073858507201E-308
  Setting up grids for atomic and cluster calculations.

  Creating wave function, potential, and density for free atoms.

  Species: H

  List of occupied orbitals and eigenvalues:
    n    l              occ      energy [Ha]    energy [eV]
    1    0           1.0000        -0.241408        -6.5691


  Species: O

  List of occupied orbitals and eigenvalues:
    n    l              occ      energy [Ha]    energy [eV]
    1    0           2.0000       -18.944147      -515.4965
    2    0           2.0000        -0.883529       -24.0421
    2    1           4.0000        -0.330176        -8.9845

  Creating fixed part of basis set: Ionic, confined, hydrogenic.
 
  H                    hydrogenic:
 
  List of hydrogenic basis orbitals: 
    n    l      effective z      eigenvalue [eV]  inner max. [A]     outer max. [A]     outer radius [A]   
    2    0         2.100000       -14.9965           0.193241           1.317192           5.372934
    2    1         3.500000       -41.6672           0.602363           0.602363           4.056010
    1    0         0.850000        -9.8292           0.624864           0.624864           5.372934
    2    1         3.700000       -46.5653           0.573616           0.573616           3.909951
    2    0         1.200000        -4.5995           0.334977           2.228160           5.505921
    3    2         7.000000       -74.0753           0.680692           0.680692           3.769152
 
 
  O                    hydrogenic:
 
  List of hydrogenic basis orbitals: 
    n    l      effective z      eigenvalue [eV]  inner max. [A]     outer max. [A]     outer radius [A]   
    2    1         1.800000       -11.0118           1.178546           1.178546           5.432516
    3    2         7.600000       -87.3182           0.624117           0.624117           3.541422
    3    0         6.400000       -61.9209           0.061166           1.081887           4.306510
    4    3        11.600000      -114.4238           0.731621           0.731621           3.584982
    3    1         6.200000       -58.1113           0.255677           1.030255           4.306510
    3    2         5.600000       -47.4081           0.847222           0.847222           4.413102
    5    4        17.600000      -168.5799           0.749730           0.749730           3.372413
    1    0         0.750000        -7.6499           0.705275           0.705275           5.366508
 

  Adding cutoff potential to free-atom effective potential.
  Creating atomic-like basis functions for current effective potential.

  Species H                   :

  List of atomic basis orbitals and eigenvalues:
    n    l      energy [Ha]    energy [eV]    outer radius [A]
    1    0        -0.241374        -6.5681       5.372934


  Species O                   :

  List of atomic basis orbitals and eigenvalues:
    n    l      energy [Ha]    energy [eV]    outer radius [A]
    1    0       -18.944147      -515.4965       1.415745
    2    0        -0.883529       -24.0421       5.048305
    2    1        -0.330173        -8.9845       5.301302

  Assembling full basis from fixed parts.
  | Species H :   atomic orbital   1 s accepted.
  | Species H :    hydro orbital   2 s accepted.
  | Species H :    hydro orbital   1 s accepted.
  | Species H :    hydro orbital   2 s accepted.
  | Species H :    hydro orbital   2 p accepted.
  | Species H :    hydro orbital   2 p accepted.
  | Species H :    hydro orbital   3 d accepted.
  | Species O :   atomic orbital   1 s accepted.
  | Species O :    hydro orbital   3 s accepted.
  | Species O :   atomic orbital   2 s accepted.
  | Species O :    hydro orbital   1 s accepted.
  | Species O :    hydro orbital   3 p accepted.
  | Species O :   atomic orbital   2 p accepted.
  | Species O :    hydro orbital   2 p accepted.
  | Species O :    hydro orbital   3 d accepted.
  | Species O :    hydro orbital   3 d accepted.
  | Species O :    hydro orbital   4 f accepted.
  | Species O :    hydro orbital   5 g accepted.
 
  Basis size parameters after reduction:
  | Total number of radial functions:       18
  | Total number of basis functions :      360
 
  Testing on-site integration grid accuracy.
  |  Species  Function  <phi|h_atom|phi> (log., in eV)  <phi|h_atom|phi> (rad., in eV)
           1        1                 -6.5683835025                 -6.5684759159
           1        2                 13.3711789951                 13.3708738703
           1        3                 23.6590910787                 23.6532055418
           1        4                 16.2963827186                 16.1870710655 ***
           1        5                 28.7627214838                 28.7627215090
           1        6                 59.5965249172                 59.5965950857
           1        7                 60.2220506392                 60.2220503827
           2        8               -515.4964576505               -515.4964530710
           2        9                 15.3030791347                 15.3030722972
           2       10                -21.7296094581                -21.7296135470
           2       11                 14.2969371730                 14.2969701621
           2       12                 21.0679693190                 21.0679697493
           2       13                 -2.3833606469                 -2.3833613176
           2       14                 13.7067136422                 13.7066766629
           2       15                 45.8013116808                 45.8013116965
           2       16                 52.2309815402                 52.2309831494
           2       17                 85.4120732416                 85.4120732763
           2       18                142.1019167745                142.1019167817
 * Note: Onsite integrals marked "***" above are less accurate than
 * onsite_accuracy_threshold =    0.03000 eV. Usually, this is harmless.
 * When in doubt, tighten the "radial" and/or "radial_multiplier" flags to check.

  Preparing densities etc. for the partition functions (integrals / Hartree potential).

  Preparations completed.
  max(cpu_time)          :      0.172 s.
  Wall clock time (cpu1) :      0.543 s.
------------------------------------------------------------

------------------------------------------------------------
          Begin self-consistency loop: Initialization.

          Date     :  20150727, Time     :  120917.763
------------------------------------------------------------

  Initializing index lists of integration centers etc. from given atomic structure:
  | Number of centers in hartree potential         :        16
  | Number of centers in hartree multipole         :        16
  | Number of centers in electron density summation:        16
  | Number of centers in basis integrals           :        16
  | Number of centers in integrals                 :        16
  Partitioning the integration grid into batches with parallel hashing+maxmin method.
  | Number of batches:     2059
  | Maximal batch size:     200
  | Minimal batch size:      49
  | Average batch size:     101.168
  | Standard deviation of batch sizes:      27.460

  Integration load balanced across     8 MPI tasks.
  Work distribution over tasks is as follows:
  Task     0 has      26068 integration points.
  Task     1 has      26018 integration points.
  Task     2 has      26058 integration points.
  Task     3 has      26040 integration points.
  Task     4 has      26037 integration points.
  Task     5 has      26060 integration points.
  Task     6 has      26006 integration points.
  Task     7 has      26017 integration points.
  Initializing partition tables, free-atom densities, potentials, etc. across the integration grid (initialize_grid_storage).
  | Net number of integration points:   208304
  | of which are non-zero points    :   207752
  Obtaining max. number of non-zero basis functions in each batch (get_n_compute_maxes).
  | Maximal number of non-zero basis functions:      356 in task     0
  | Maximal number of non-zero basis functions:      357 in task     1
  | Maximal number of non-zero basis functions:      357 in task     2
  | Maximal number of non-zero basis functions:      357 in task     3
  | Maximal number of non-zero basis functions:      356 in task     4
  | Maximal number of non-zero basis functions:      357 in task     5
  | Maximal number of non-zero basis functions:      356 in task     6
  | Maximal number of non-zero basis functions:      357 in task     7
  Integrating Hamiltonian matrix: batch-based integration.
  Time summed over all CPUs for integration: real work        8.044 s, elapsed        8.225 s
  Integrating overlap matrix.
  Time summed over all CPUs for integration: real work        4.318 s, elapsed        4.417 s

  Updating Kohn-Sham eigenvalues, eigenvectors, occupation numbers, and Fermi level.
  Solving generalized eigenproblem
  Updating Kohn-Sham eigenvalues and eigenfunctions.
  Transforming overlap matrix and checking for singularities.
  Overlap matrix is nonsingular:
  | Lowest eigenvalue:  0.212436E-03
  Solving real generalised eigenvalue problem by standard LAPACK (fast)
  Determining occupation numbers for Kohn-Sham eigenstates.
  | Chemical potential (Fermi level) in eV                 : -.27045410E+01
  | Error in electron count due to remaining E_F inaccuracy: 0.42632564E-13
  | Maximum occupation number of highest empty state:  0.00E+00

  Writing Kohn-Sham eigenvalues.

  State    Occupation    Eigenvalue [Ha]    Eigenvalue [eV]
      1       2.00000         -19.065136         -518.78875
      2       2.00000         -19.064973         -518.78431
      3       2.00000         -19.059129         -518.62529
      4       2.00000         -19.045334         -518.24992
      5       2.00000         -19.044623         -518.23055
      6       2.00000          -1.130350          -30.75838
      7       2.00000          -1.117129          -30.39864
      8       2.00000          -1.102917          -30.01190
      9       2.00000          -1.093623          -29.75900
     10       2.00000          -1.086072          -29.55351
     11       2.00000          -0.654080          -17.79842
     12       2.00000          -0.651138          -17.71836
     13       2.00000          -0.641100          -17.44522
     14       2.00000          -0.623518          -16.96679
     15       2.00000          -0.621085          -16.90059
     16       2.00000          -0.607173          -16.52203
     17       2.00000          -0.536511          -14.59919
     18       2.00000          -0.518768          -14.11641
     19       2.00000          -0.506815          -13.79115
     20       2.00000          -0.498917          -13.57623
     21       2.00000          -0.484098          -13.17297
     22       2.00000          -0.453010          -12.32703
     23       2.00000          -0.446068          -12.13812
     24       2.00000          -0.439165          -11.95028
     25       2.00000          -0.430065          -11.70265
     26       1.00000          -0.099390           -2.70454
     27       0.00000          -0.072042           -1.96037
     28       0.00000          -0.058217           -1.58416
     29       0.00000          -0.040497           -1.10199
     30       0.00000          -0.037934           -1.03225
     31       0.00000          -0.010787           -0.29352
     32       0.00000           0.005261            0.14315
     33       0.00000           0.025988            0.70718
     34       0.00000           0.036761            1.00030
     35       0.00000           0.041089            1.11808
     36       0.00000           0.060649            1.65034
     37       0.00000           0.067789            1.84463
     38       0.00000           0.077454            2.10764
     39       0.00000           0.087532            2.38187
     40       0.00000           0.092751            2.52389
     41       0.00000           0.097500            2.65312
     42       0.00000           0.101931            2.77368
     43       0.00000           0.112847            3.07072
     44       0.00000           0.121189            3.29772
     45       0.00000           0.123875            3.37082
     46       0.00000           0.131621            3.58159
     47       0.00000           0.137473            3.74084
     48       0.00000           0.145200            3.95109
     49       0.00000           0.150976            4.10827
     50       0.00000           0.161164            4.38549
     51       0.00000           0.180327            4.90696
     52       0.00000           0.195715            5.32569
     53       0.00000           0.206342            5.61486
     54       0.00000           0.214975            5.84978
     55       0.00000           0.220832            6.00914
     56       0.00000           0.249384            6.78609
     57       0.00000           0.261808            7.12415
     58       0.00000           0.269779            7.34107
     59       0.00000           0.279016            7.59241
     60       0.00000           0.295749            8.04775
     61       0.00000           0.301456            8.20303
     62       0.00000           0.326519            8.88505
     63       0.00000           0.339797            9.24634
     64       0.00000           0.352990            9.60534
     65       0.00000           0.358365            9.75160
     66       0.00000           0.371767           10.11628
     67       0.00000           0.384530           10.46360
     68       0.00000           0.400440           10.89652
     69       0.00000           0.413682           11.25687
     70       0.00000           0.429881           11.69767
     71       0.00000           0.436286           11.87194
     72       0.00000           0.447209           12.16916
     73       0.00000           0.456499           12.42196
     74       0.00000           0.461852           12.56764
     75       0.00000           0.484721           13.18994
     76       0.00000           0.494878           13.46630
     77       0.00000           0.516001           14.04111
     78       0.00000           0.529955           14.42080
     79       0.00000           0.536381           14.59567
     80       0.00000           0.574542           15.63409
     81       0.00000           0.581802           15.83163
     82       0.00000           0.585181           15.92358
     83       0.00000           0.628938           17.11427
     84       0.00000           0.643075           17.49896
     85       0.00000           0.685553           18.65485
     86       0.00000           0.716989           19.51025
     87       0.00000           0.721062           19.62110
     88       0.00000           0.751420           20.44717
     89       0.00000           0.769663           20.94359
     90       0.00000           0.779368           21.20768

  Highest occupied state (VBM) at     -2.70454100 eV
  | Occupation number:      1.00000000

  Lowest unoccupied state (CBM) at    -1.96036508 eV
  | Occupation number:      0.00000000

  Overall HOMO-LUMO gap:      0.74417593 eV.
  Calculating total energy contributions from superposition of free atom densities.

  Total energy components:
  | Sum of eigenvalues            :        -217.94098312 Ha       -5930.47588999 eV
  | XC energy correction          :         -45.97220793 Ha       -1250.96742622 eV
  | XC potential correction       :          58.75877867 Ha        1598.90771908 eV
  | Free-atom electrostatic energy:        -178.38900389 Ha       -4854.21177545 eV
  | Hartree energy correction     :           0.00000000 Ha           0.00000000 eV
  | van der Waals energy corr.    :           0.00000000 Ha           0.00000000 eV
  | Entropy correction            :          -0.00010367 Ha          -0.00282095 eV
  | ---------------------------
  | Total energy                  :        -383.54341627 Ha      -10436.74737258 eV
  | Total energy, T -> 0          :        -383.54351994 Ha      -10436.75019352 eV  <-- do not rely on this value for anything but (periodic) metals
  | Electronic free energy        :        -383.54362361 Ha      -10436.75301447 eV

  Derived energy quantities:
  | Kinetic energy                :         379.91610781 Ha       10338.04328740 eV
  | Electrostatic energy          :        -717.48731615 Ha      -19523.82323375 eV
  | Energy correction for multipole
  | error in Hartree potential    :           0.00000000 Ha           0.00000000 eV
  | Sum of eigenvalues per atom                           :        -370.65474312 eV
  | Total energy (T->0) per atom                          :        -652.29688710 eV  <-- do not rely on this value for anything but (periodic) metals
  | Electronic free energy per atom                       :        -652.29706340 eV
  Initialize hartree_potential_storage
  Max. number of atoms included in rho_multipole:           16

  End scf initialization - timings             :  max(cpu_time)    wall_clock(cpu1)
  | Time for scf. initialization               :        2.171 s           2.171 s
  | Boundary condition initialization          :        0.000 s           0.000 s
  | Integration                                :        1.584 s           1.584 s
  | Solution of K.-S. eqns.                    :        0.213 s           0.212 s
  | Grid partitioning                          :        0.138 s           0.137 s
  | Preloading free-atom quantities on grid    :        0.014 s           0.013 s
  | Free-atom superposition energy             :        0.072 s           0.072 s
  | Total energy evaluation                    :        0.000 s           0.000 s
------------------------------------------------------------

------------------------------------------------------------
          Begin self-consistency iteration #    1

  Date     :  20150727, Time     :  120919.934
------------------------------------------------------------
  Evaluating new KS density.
  Integration grid: deviation in total charge (<rho> - N_e) =   4.263256E-14
  Pulay mixing of updated and previous charge densities.

  Evaluating partitioned Hartree potential by multipole expansion.
  | Analytical far-field extrapolation by fixed multipoles:
  | Hartree multipole sum: apparent total charge =  -0.108354E-05
  Summing up the Hartree potential.
  Time summed over all CPUs for potential: real work        2.895 s, elapsed        2.907 s
  | RMS charge density error from multipole expansion :   0.169785E-02

  Integrating Hamiltonian matrix: batch-based integration.
  Time summed over all CPUs for integration: real work        8.045 s, elapsed        8.235 s

  Updating Kohn-Sham eigenvalues, eigenvectors, occupation numbers, and Fermi level.
  Solving generalized eigenproblem
  Updating Kohn-Sham eigenvalues and eigenfunctions.
  Solving real generalised eigenvalue problem by standard LAPACK (fast)
  Determining occupation numbers for Kohn-Sham eigenstates.
  | Chemical potential (Fermi level) in eV                 : -.24930707E+01
  | Error in electron count due to remaining E_F inaccuracy: -.17053026E-12
  | Maximum occupation number of highest empty state:  0.00E+00

  Writing Kohn-Sham eigenvalues.

  State    Occupation    Eigenvalue [Ha]    Eigenvalue [eV]
      1       2.00000         -19.012053         -517.34427
      2       2.00000         -18.993065         -516.82760
      3       2.00000         -18.988452         -516.70207
      4       2.00000         -18.974680         -516.32733
      5       2.00000         -18.958398         -515.88424
      6       2.00000          -1.102817          -30.00919
      7       2.00000          -1.083727          -29.48972
      8       2.00000          -1.070529          -29.13059
      9       2.00000          -1.056363          -28.74509
     10       2.00000          -1.042661          -28.37226
     11       2.00000          -0.623970          -16.97910
     12       2.00000          -0.622545          -16.94032
     13       2.00000          -0.618327          -16.82555
     14       2.00000          -0.598889          -16.29660
     15       2.00000          -0.585663          -15.93671
     16       2.00000          -0.575286          -15.65432
     17       2.00000          -0.505668          -13.75994
     18       2.00000          -0.483965          -13.16936
     19       2.00000          -0.472680          -12.86228
     20       2.00000          -0.456871          -12.43208
     21       2.00000          -0.454178          -12.35882
     22       2.00000          -0.417750          -11.36754
     23       2.00000          -0.411268          -11.19118
     24       2.00000          -0.402067          -10.94079
     25       2.00000          -0.383115          -10.42509
     26       1.00000          -0.091619           -2.49307
     27       0.00000          -0.064450           -1.75378
     28       0.00000          -0.050761           -1.38128
     29       0.00000          -0.034366           -0.93513
     30       0.00000          -0.029529           -0.80352
     31       0.00000          -0.004126           -0.11228
     32       0.00000           0.012371            0.33662
     33       0.00000           0.034518            0.93928
     34       0.00000           0.045615            1.24125
     35       0.00000           0.050789            1.38203
     36       0.00000           0.065195            1.77404
     37       0.00000           0.075669            2.05907
     38       0.00000           0.087070            2.36928
     39       0.00000           0.095784            2.60642
     40       0.00000           0.099723            2.71360
     41       0.00000           0.109200            2.97148
     42       0.00000           0.111856            3.04377
     43       0.00000           0.122821            3.34214
     44       0.00000           0.129503            3.52395
     45       0.00000           0.131132            3.56827
     46       0.00000           0.143462            3.90379
     47       0.00000           0.146286            3.98064
     48       0.00000           0.155122            4.22109
     49       0.00000           0.160877            4.37770
     50       0.00000           0.168283            4.57921
     51       0.00000           0.189183            5.14793
     52       0.00000           0.204587            5.56711
     53       0.00000           0.214289            5.83110
     54       0.00000           0.221190            6.01888
     55       0.00000           0.229105            6.23427
     56       0.00000           0.257650            7.01102
     57       0.00000           0.269476            7.33281
     58       0.00000           0.276672            7.52862
     59       0.00000           0.286285            7.79020
     60       0.00000           0.302541            8.23255
     61       0.00000           0.306855            8.34994
     62       0.00000           0.333481            9.07447
     63       0.00000           0.348829            9.49213
     64       0.00000           0.361486            9.83654
     65       0.00000           0.366756            9.97994
     66       0.00000           0.379529           10.32750
     67       0.00000           0.392188           10.67199
     68       0.00000           0.408597           11.11848
     69       0.00000           0.420664           11.44685
     70       0.00000           0.437957           11.91742
     71       0.00000           0.444361           12.09168
     72       0.00000           0.455003           12.38127
     73       0.00000           0.464452           12.63840
     74       0.00000           0.470311           12.79782
     75       0.00000           0.495770           13.49058
     76       0.00000           0.505848           13.76483
     77       0.00000           0.526094           14.31575
     78       0.00000           0.541218           14.72730
     79       0.00000           0.546517           14.87149
     80       0.00000           0.586769           15.96679
     81       0.00000           0.591667           16.10009
     82       0.00000           0.596538           16.23261
     83       0.00000           0.639591           17.40415
     84       0.00000           0.652041           17.74295
     85       0.00000           0.697550           18.98131
     86       0.00000           0.728548           19.82481
     87       0.00000           0.732210           19.92445
     88       0.00000           0.763692           20.78112
     89       0.00000           0.779983           21.22442
     90       0.00000           0.788779           21.46376

  Highest occupied state (VBM) at    -10.42509325 eV
  | Occupation number:      2.00000000

  Lowest unoccupied state (CBM) at    -2.49307073 eV
  | Occupation number:      1.00000000

  Overall HOMO-LUMO gap:      7.93202252 eV.

  Total energy components:
  | Sum of eigenvalues            :        -215.88159703 Ha       -5874.43714322 eV
  | XC energy correction          :         -46.19365862 Ha       -1256.99340620 eV
  | XC potential correction       :          59.04787096 Ha        1606.77432056 eV
  | Free-atom electrostatic energy:        -178.38900389 Ha       -4854.21177545 eV
  | Hartree energy correction     :          -2.00660898 Ha         -54.60260860 eV
  | van der Waals energy corr.    :           0.00000000 Ha           0.00000000 eV
  | Entropy correction            :          -0.00010367 Ha          -0.00282095 eV
  | ---------------------------
  | Total energy                  :        -383.42299757 Ha      -10433.47061291 eV
  | Total energy, T -> 0          :        -383.42310123 Ha      -10433.47343386 eV  <-- do not rely on this value for anything but (periodic) metals
  | Electronic free energy        :        -383.42320490 Ha      -10433.47625481 eV

  Derived energy quantities:
  | Kinetic energy                :         381.27168215 Ha       10374.93034196 eV
  | Electrostatic energy          :        -718.50102110 Ha      -19551.40754868 eV
  | Energy correction for multipole
  | error in Hartree potential    :           0.00034691 Ha           0.00943994 eV
  | Sum of eigenvalues per atom                           :        -367.15232145 eV
  | Total energy (T->0) per atom                          :        -652.09208962 eV  <-- do not rely on this value for anything but (periodic) metals
  | Electronic free energy per atom                       :        -652.09226593 eV

  Self-consistency convergence accuracy:
  | Change of charge density      : 0.6380E+00
  | Change of sum of eigenvalues  : 0.5604E+02 eV
  | Change of total energy        : 0.3277E+01 eV

  End self-consistency iteration #     1       :  max(cpu_time)    wall_clock(cpu1)
  | Time for this iteration                    :        2.146 s           2.145 s
  | Charge density update                      :        0.684 s           0.683 s
  | Density mixing                             :        0.003 s           0.004 s
  | Hartree multipole update                   :        0.005 s           0.005 s
  | Hartree multipole summation                :        0.364 s           0.364 s
  | Integration                                :        1.031 s           1.031 s
  | Solution of K.-S. eqns.                    :        0.057 s           0.057 s
  | Total energy evaluation                    :        0.000 s           0.000 s
------------------------------------------------------------

------------------------------------------------------------
          Begin self-consistency iteration #    2

  Date     :  20150727, Time     :  120922.079
------------------------------------------------------------
  Evaluating new KS density.
  Integration grid: deviation in total charge (<rho> - N_e) =  -1.563194E-13
  Pulay mixing of updated and previous charge densities.

  Evaluating partitioned Hartree potential by multipole expansion.
  | Analytical far-field extrapolation by fixed multipoles:
  | Hartree multipole sum: apparent total charge =  -0.379513E-05
  Summing up the Hartree potential.
  Time summed over all CPUs for potential: real work        2.894 s, elapsed        2.907 s
  | RMS charge density error from multipole expansion :   0.695115E-02

  Integrating Hamiltonian matrix: batch-based integration.
  Time summed over all CPUs for integration: real work        8.017 s, elapsed        8.182 s

  Updating Kohn-Sham eigenvalues, eigenvectors, occupation numbers, and Fermi level.
  Solving generalized eigenproblem
  Updating Kohn-Sham eigenvalues and eigenfunctions.
  Solving real generalised eigenvalue problem by standard LAPACK (fast)
  Determining occupation numbers for Kohn-Sham eigenstates.
  | Chemical potential (Fermi level) in eV                 : -.20151164E+01
  | Error in electron count due to remaining E_F inaccuracy: -.13660397E-08
  | Maximum occupation number of highest empty state:  0.00E+00

  Highest occupied state (VBM) at     -7.30664904 eV
  | Occupation number:      2.00000000

  Lowest unoccupied state (CBM) at    -2.01511637 eV
  | Occupation number:      1.00000000

  Overall HOMO-LUMO gap:      5.29153267 eV.

  Total energy components:
  | Sum of eigenvalues            :        -210.87368223 Ha       -5738.16484800 eV
  | XC energy correction          :         -46.76013616 Ha       -1272.40804425 eV
  | XC potential correction       :          59.78576558 Ha        1626.85345484 eV
  | Free-atom electrostatic energy:        -178.38900389 Ha       -4854.21177545 eV
  | Hartree energy correction     :          -7.04861309 Ha        -191.80252104 eV
  | van der Waals energy corr.    :           0.00000000 Ha           0.00000000 eV
  | Entropy correction            :          -0.00010367 Ha          -0.00282095 eV
  | ---------------------------
  | Total energy                  :        -383.28566979 Ha      -10429.73373389 eV
  | Total energy, T -> 0          :        -383.28577345 Ha      -10429.73655484 eV  <-- do not rely on this value for anything but (periodic) metals
  | Electronic free energy        :        -383.28587712 Ha      -10429.73937579 eV

  Derived energy quantities:
  | Kinetic energy                :         384.14212990 Ha       10453.03919943 eV
  | Electrostatic energy          :        -720.66766353 Ha      -19610.36488908 eV
  | Energy correction for multipole
  | error in Hartree potential    :           0.00050415 Ha           0.01371872 eV
  | Sum of eigenvalues per atom                           :        -358.63530300 eV
  | Total energy (T->0) per atom                          :        -651.85853468 eV  <-- do not rely on this value for anything but (periodic) metals
  | Electronic free energy per atom                       :        -651.85871099 eV

  Self-consistency convergence accuracy:
  | Change of charge density      : 0.4857E+00
  | Change of sum of eigenvalues  : 0.1363E+03 eV
  | Change of total energy        : 0.3737E+01 eV

  End self-consistency iteration #     2       :  max(cpu_time)    wall_clock(cpu1)
  | Time for this iteration                    :        2.137 s           2.137 s
  | Charge density update                      :        0.680 s           0.680 s
  | Density mixing                             :        0.006 s           0.006 s
  | Hartree multipole update                   :        0.005 s           0.005 s
  | Hartree multipole summation                :        0.365 s           0.364 s
  | Integration                                :        1.024 s           1.025 s
  | Solution of K.-S. eqns.                    :        0.057 s           0.056 s
  | Total energy evaluation                    :        0.000 s           0.000 s
------------------------------------------------------------

------------------------------------------------------------
          Begin self-consistency iteration #    3

  Date     :  20150727, Time     :  120924.216
------------------------------------------------------------
  Evaluating new KS density.
  Integration grid: deviation in total charge (<rho> - N_e) =  -1.366047E-09
  Pulay mixing of updated and previous charge densities.

  Evaluating partitioned Hartree potential by multipole expansion.
  | Analytical far-field extrapolation by fixed multipoles:
  | Hartree multipole sum: apparent total charge =  -0.376997E-05
  Summing up the Hartree potential.
  Time summed over all CPUs for potential: real work        2.894 s, elapsed        2.906 s
  | RMS charge density error from multipole expansion :   0.141662E-01

  Integrating Hamiltonian matrix: batch-based integration.
  Time summed over all CPUs for integration: real work        8.019 s, elapsed        8.182 s

  Updating Kohn-Sham eigenvalues, eigenvectors, occupation numbers, and Fermi level.
  Solving generalized eigenproblem
  Updating Kohn-Sham eigenvalues and eigenfunctions.
  Solving real generalised eigenvalue problem by standard LAPACK (fast)
  Determining occupation numbers for Kohn-Sham eigenstates.
  | Chemical potential (Fermi level) in eV                 : -.19631612E+01
  | Error in electron count due to remaining E_F inaccuracy: -.13223627E-08
  | Maximum occupation number of highest empty state:  0.00E+00

  Highest occupied state (VBM) at     -7.11726205 eV
  | Occupation number:      2.00000000

  Lowest unoccupied state (CBM) at    -1.96316117 eV
  | Occupation number:      1.00000000

  Overall HOMO-LUMO gap:      5.15410089 eV.

  Total energy components:
  | Sum of eigenvalues            :        -211.13307423 Ha       -5745.22326366 eV
  | XC energy correction          :         -46.75961250 Ha       -1272.39379480 eV
  | XC potential correction       :          59.77651401 Ha        1626.60170675 eV
  | Free-atom electrostatic energy:        -178.38900389 Ha       -4854.21177545 eV
  | Hartree energy correction     :          -6.77930257 Ha        -184.47420888 eV
  | van der Waals energy corr.    :           0.00000000 Ha           0.00000000 eV
  | Entropy correction            :          -0.00010367 Ha          -0.00282095 eV
  | ---------------------------
  | Total energy                  :        -383.28447919 Ha      -10429.70133603 eV
  | Total energy, T -> 0          :        -383.28458285 Ha      -10429.70415698 eV  <-- do not rely on this value for anything but (periodic) metals
  | Electronic free energy        :        -383.28468652 Ha      -10429.70697793 eV

  Derived energy quantities:
  | Kinetic energy                :         382.36849927 Ha       10404.77625429 eV
  | Electrostatic energy          :        -718.89336596 Ha      -19562.08379553 eV
  | Energy correction for multipole
  | error in Hartree potential    :          -0.00366108 Ha          -0.09962310 eV
  | Sum of eigenvalues per atom                           :        -359.07645398 eV
  | Total energy (T->0) per atom                          :        -651.85650981 eV  <-- do not rely on this value for anything but (periodic) metals
  | Electronic free energy per atom                       :        -651.85668612 eV

  Self-consistency convergence accuracy:
  | Change of charge density      : 0.2339E+00
  | Change of sum of eigenvalues  : -.7058E+01 eV
  | Change of total energy        : 0.3240E-01 eV

  End self-consistency iteration #     3       :  max(cpu_time)    wall_clock(cpu1)
  | Time for this iteration                    :        2.131 s           2.131 s
  | Charge density update                      :        0.673 s           0.673 s
  | Density mixing                             :        0.008 s           0.007 s
  | Hartree multipole update                   :        0.005 s           0.005 s
  | Hartree multipole summation                :        0.364 s           0.364 s
  | Integration                                :        1.024 s           1.025 s
  | Solution of K.-S. eqns.                    :        0.057 s           0.056 s
  | Total energy evaluation                    :        0.000 s           0.001 s
------------------------------------------------------------

------------------------------------------------------------
          Begin self-consistency iteration #    4

  Date     :  20150727, Time     :  120926.347
------------------------------------------------------------
  Evaluating new KS density.
  Integration grid: deviation in total charge (<rho> - N_e) =  -1.322356E-09
  Pulay mixing of updated and previous charge densities.

  Evaluating partitioned Hartree potential by multipole expansion.
  | Analytical far-field extrapolation by fixed multipoles:
  | Hartree multipole sum: apparent total charge =  -0.447229E-05
  Summing up the Hartree potential.
  Time summed over all CPUs for potential: real work        2.893 s, elapsed        2.905 s
  | RMS charge density error from multipole expansion :   0.175898E-01

  Integrating Hamiltonian matrix: batch-based integration.
  Time summed over all CPUs for integration: real work        8.014 s, elapsed        8.195 s

  Updating Kohn-Sham eigenvalues, eigenvectors, occupation numbers, and Fermi level.
  Solving generalized eigenproblem
  Updating Kohn-Sham eigenvalues and eigenfunctions.
  Solving real generalised eigenvalue problem by standard LAPACK (fast)
  Determining occupation numbers for Kohn-Sham eigenstates.
  | Chemical potential (Fermi level) in eV                 : -.18690196E+01
  | Error in electron count due to remaining E_F inaccuracy: 0.00000000E+00
  | Maximum occupation number of highest empty state:  0.00E+00

  Highest occupied state (VBM) at     -1.86901964 eV
  | Occupation number:      1.00000000

  Lowest unoccupied state (CBM) at    -1.86901964 eV
  | Occupation number:      1.00000000

  Overall HOMO-LUMO gap:      0.00000000 eV.

  Total energy components:
  | Sum of eigenvalues            :        -210.08730058 Ha       -5716.76631471 eV
  | XC energy correction          :         -46.90196868 Ha       -1276.26750346 eV
  | XC potential correction       :          59.95964507 Ha        1631.58495641 eV
  | Free-atom electrostatic energy:        -178.38900389 Ha       -4854.21177545 eV
  | Hartree energy correction     :          -7.86114784 Ha        -213.91271650 eV
  | van der Waals energy corr.    :           0.00000000 Ha           0.00000000 eV
  | Entropy correction            :          -0.00010367 Ha          -0.00282095 eV
  | ---------------------------
  | Total energy                  :        -383.27977592 Ha      -10429.57335370 eV
  | Total energy, T -> 0          :        -383.27987959 Ha      -10429.57617465 eV  <-- do not rely on this value for anything but (periodic) metals
  | Electronic free energy        :        -383.27998326 Ha      -10429.57899560 eV

  Derived energy quantities:
  | Kinetic energy                :         382.45520582 Ha       10407.13565962 eV
  | Electrostatic energy          :        -718.83301307 Ha      -19560.44150987 eV
  | Energy correction for multipole
  | error in Hartree potential    :          -0.00499936 Ha          -0.13603949 eV
  | Sum of eigenvalues per atom                           :        -357.29789467 eV
  | Total energy (T->0) per atom                          :        -651.84851092 eV  <-- do not rely on this value for anything but (periodic) metals
  | Electronic free energy per atom                       :        -651.84868722 eV

  Self-consistency convergence accuracy:
  | Change of charge density      : 0.1048E+00
  | Change of sum of eigenvalues  : 0.2846E+02 eV
  | Change of total energy        : 0.1280E+00 eV

  End self-consistency iteration #     4       :  max(cpu_time)    wall_clock(cpu1)
  | Time for this iteration                    :        2.133 s           2.133 s
  | Charge density update                      :        0.672 s           0.672 s
  | Density mixing                             :        0.008 s           0.009 s
  | Hartree multipole update                   :        0.005 s           0.005 s
  | Hartree multipole summation                :        0.364 s           0.363 s
  | Integration                                :        1.027 s           1.026 s
  | Solution of K.-S. eqns.                    :        0.056 s           0.057 s
  | Total energy evaluation                    :        0.000 s           0.000 s
------------------------------------------------------------

------------------------------------------------------------
          Begin self-consistency iteration #    5

  Date     :  20150727, Time     :  120928.480
------------------------------------------------------------
  Evaluating new KS density.
  Integration grid: deviation in total charge (<rho> - N_e) =   2.131628E-14
  Pulay mixing of updated and previous charge densities.

  Evaluating partitioned Hartree potential by multipole expansion.
  | Analytical far-field extrapolation by fixed multipoles:
  | Hartree multipole sum: apparent total charge =  -0.453878E-05
  Summing up the Hartree potential.
  Time summed over all CPUs for potential: real work        2.893 s, elapsed        2.905 s
  | RMS charge density error from multipole expansion :   0.181261E-01

  Integrating Hamiltonian matrix: batch-based integration.
  Time summed over all CPUs for integration: real work        8.014 s, elapsed        8.195 s

  Updating Kohn-Sham eigenvalues, eigenvectors, occupation numbers, and Fermi level.
  Solving generalized eigenproblem
  Updating Kohn-Sham eigenvalues and eigenfunctions.
  Solving real generalised eigenvalue problem by standard LAPACK (fast)
  Determining occupation numbers for Kohn-Sham eigenstates.
  | Chemical potential (Fermi level) in eV                 : -.18819991E+01
  | Error in electron count due to remaining E_F inaccuracy: 0.28046401E-08
  | Maximum occupation number of highest empty state:  0.00E+00

  Highest occupied state (VBM) at     -1.88199912 eV
  | Occupation number:      1.00000000

  Lowest unoccupied state (CBM) at    -1.12995499 eV
  | Occupation number:      0.00000000

  Overall HOMO-LUMO gap:      0.75204414 eV.

  Total energy components:
  | Sum of eigenvalues            :        -210.05681540 Ha       -5715.93677076 eV
  | XC energy correction          :         -46.90971865 Ha       -1276.47839088 eV
  | XC potential correction       :          59.96910052 Ha        1631.84225226 eV
  | Free-atom electrostatic energy:        -178.38900389 Ha       -4854.21177545 eV
  | Hartree energy correction     :          -7.89316197 Ha        -214.78386526 eV
  | van der Waals energy corr.    :           0.00000000 Ha           0.00000000 eV
  | Entropy correction            :          -0.00010367 Ha          -0.00282095 eV
  | ---------------------------
  | Total energy                  :        -383.27959939 Ha      -10429.56855008 eV
  | Total energy, T -> 0          :        -383.27970306 Ha      -10429.57137103 eV  <-- do not rely on this value for anything but (periodic) metals
  | Electronic free energy        :        -383.27980673 Ha      -10429.57419198 eV

  Derived energy quantities:
  | Kinetic energy                :         382.44073373 Ha       10406.74185408 eV
  | Electrostatic energy          :        -718.81061448 Ha      -19559.83201329 eV
  | Energy correction for multipole
  | error in Hartree potential    :          -0.00540634 Ha          -0.14711411 eV
  | Sum of eigenvalues per atom                           :        -357.24604817 eV
  | Total energy (T->0) per atom                          :        -651.84821069 eV  <-- do not rely on this value for anything but (periodic) metals
  | Electronic free energy per atom                       :        -651.84838700 eV

  Self-consistency convergence accuracy:
  | Change of charge density      : 0.2812E-01
  | Change of sum of eigenvalues  : 0.8295E+00 eV
  | Change of total energy        : 0.4804E-02 eV

  End self-consistency iteration #     5       :  max(cpu_time)    wall_clock(cpu1)
  | Time for this iteration                    :        2.135 s           2.134 s
  | Charge density update                      :        0.672 s           0.672 s
  | Density mixing                             :        0.010 s           0.010 s
  | Hartree multipole update                   :        0.005 s           0.005 s
  | Hartree multipole summation                :        0.364 s           0.364 s
  | Integration                                :        1.026 s           1.026 s
  | Solution of K.-S. eqns.                    :        0.057 s           0.057 s
  | Total energy evaluation                    :        0.000 s           0.000 s
------------------------------------------------------------

------------------------------------------------------------
          Begin self-consistency iteration #    6

  Date     :  20150727, Time     :  120930.614
------------------------------------------------------------
  Evaluating new KS density.
  Integration grid: deviation in total charge (<rho> - N_e) =   2.804654E-09
  Pulay mixing of updated and previous charge densities.

  Evaluating partitioned Hartree potential by multipole expansion.
  | Analytical far-field extrapolation by fixed multipoles:
  | Hartree multipole sum: apparent total charge =  -0.450009E-05
  Summing up the Hartree potential.
  Time summed over all CPUs for potential: real work        2.893 s, elapsed        2.905 s
  | RMS charge density error from multipole expansion :   0.183393E-01

  Integrating Hamiltonian matrix: batch-based integration.
  Time summed over all CPUs for integration: real work        8.014 s, elapsed        8.190 s

  Updating Kohn-Sham eigenvalues, eigenvectors, occupation numbers, and Fermi level.
  Solving generalized eigenproblem
  Updating Kohn-Sham eigenvalues and eigenfunctions.
  Solving real generalised eigenvalue problem by standard LAPACK (fast)
  Determining occupation numbers for Kohn-Sham eigenstates.
  | Chemical potential (Fermi level) in eV                 : -.18860364E+01
  | Error in electron count due to remaining E_F inaccuracy: 0.19859669E-10
  | Maximum occupation number of highest empty state:  0.00E+00

  Highest occupied state (VBM) at     -1.88603638 eV
  | Occupation number:      1.00000000

  Lowest unoccupied state (CBM) at    -1.13395083 eV
  | Occupation number:      0.00000000

  Overall HOMO-LUMO gap:      0.75208555 eV.

  Total energy components:
  | Sum of eigenvalues            :        -210.06673472 Ha       -5716.20668925 eV
  | XC energy correction          :         -46.91044295 Ha       -1276.49810014 eV
  | XC potential correction       :          59.96978743 Ha        1631.86094415 eV
  | Free-atom electrostatic energy:        -178.38900389 Ha       -4854.21177545 eV
  | Hartree energy correction     :          -7.88322726 Ha        -214.51352815 eV
  | van der Waals energy corr.    :           0.00000000 Ha           0.00000000 eV
  | Entropy correction            :          -0.00010367 Ha          -0.00282095 eV
  | ---------------------------
  | Total energy                  :        -383.27962140 Ha      -10429.56914884 eV
  | Total energy, T -> 0          :        -383.27972506 Ha      -10429.57196979 eV  <-- do not rely on this value for anything but (periodic) metals
  | Electronic free energy        :        -383.27982873 Ha      -10429.57479074 eV

  Derived energy quantities:
  | Kinetic energy                :         382.42154995 Ha       10406.21983688 eV
  | Electrostatic energy          :        -718.79072840 Ha      -19559.29088558 eV
  | Energy correction for multipole
  | error in Hartree potential    :          -0.00557925 Ha          -0.15181909 eV
  | Sum of eigenvalues per atom                           :        -357.26291808 eV
  | Total energy (T->0) per atom                          :        -651.84824811 eV  <-- do not rely on this value for anything but (periodic) metals
  | Electronic free energy per atom                       :        -651.84842442 eV

  Self-consistency convergence accuracy:
  | Change of charge density      : 0.7924E-02
  | Change of sum of eigenvalues  : -.2699E+00 eV
  | Change of total energy        : -.5988E-03 eV

  End self-consistency iteration #     6       :  max(cpu_time)    wall_clock(cpu1)
  | Time for this iteration                    :        2.136 s           2.136 s
  | Charge density update                      :        0.672 s           0.673 s
  | Density mixing                             :        0.012 s           0.011 s
  | Hartree multipole update                   :        0.005 s           0.005 s
  | Hartree multipole summation                :        0.364 s           0.364 s
  | Integration                                :        1.025 s           1.026 s
  | Solution of K.-S. eqns.                    :        0.057 s           0.056 s
  | Total energy evaluation                    :        0.001 s           0.000 s
------------------------------------------------------------

------------------------------------------------------------
          Begin self-consistency iteration #    7

  Date     :  20150727, Time     :  120932.750
------------------------------------------------------------
  Evaluating new KS density.
  Integration grid: deviation in total charge (<rho> - N_e) =   1.983835E-11
  Pulay mixing of updated and previous charge densities.

  Evaluating partitioned Hartree potential by multipole expansion.
  | Analytical far-field extrapolation by fixed multipoles:
  | Hartree multipole sum: apparent total charge =  -0.448493E-05
  Summing up the Hartree potential.
  Time summed over all CPUs for potential: real work        2.893 s, elapsed        2.905 s
  | RMS charge density error from multipole expansion :   0.184264E-01

  Integrating Hamiltonian matrix: batch-based integration.
  Time summed over all CPUs for integration: real work        8.007 s, elapsed        8.191 s

  Updating Kohn-Sham eigenvalues, eigenvectors, occupation numbers, and Fermi level.
  Solving generalized eigenproblem
  Updating Kohn-Sham eigenvalues and eigenfunctions.
  Solving real generalised eigenvalue problem by standard LAPACK (fast)
  Determining occupation numbers for Kohn-Sham eigenstates.
  | Chemical potential (Fermi level) in eV                 : -.18994459E+01
  | Error in electron count due to remaining E_F inaccuracy: 0.00000000E+00
  | Maximum occupation number of highest empty state:  0.00E+00

  Highest occupied state (VBM) at     -1.89944586 eV
  | Occupation number:      1.00000000

  Lowest unoccupied state (CBM) at    -1.89944586 eV
  | Occupation number:      1.00000000

  Overall HOMO-LUMO gap:      0.00000000 eV.

  Total energy components:
  | Sum of eigenvalues            :        -210.12031222 Ha       -5717.66460714 eV
  | XC energy correction          :         -46.90589919 Ha       -1276.37445828 eV
  | XC potential correction       :          59.96361924 Ha        1631.69309923 eV
  | Free-atom electrostatic energy:        -178.38900389 Ha       -4854.21177545 eV
  | Hartree energy correction     :          -7.82801689 Ha        -213.01117736 eV
  | van der Waals energy corr.    :           0.00000000 Ha           0.00000000 eV
  | Entropy correction            :          -0.00010367 Ha          -0.00282095 eV
  | ---------------------------
  | Total energy                  :        -383.27961295 Ha      -10429.56891899 eV
  | Total energy, T -> 0          :        -383.27971662 Ha      -10429.57173994 eV  <-- do not rely on this value for anything but (periodic) metals
  | Electronic free energy        :        -383.27982029 Ha      -10429.57456089 eV

  Derived energy quantities:
  | Kinetic energy                :         382.45221707 Ha       10407.05433169 eV
  | Electrostatic energy          :        -718.82593083 Ha      -19560.24879240 eV
  | Energy correction for multipole
  | error in Hartree potential    :          -0.00577934 Ha          -0.15726384 eV
  | Sum of eigenvalues per atom                           :        -357.35403795 eV
  | Total energy (T->0) per atom                          :        -651.84823375 eV  <-- do not rely on this value for anything but (periodic) metals
  | Electronic free energy per atom                       :        -651.84841006 eV

  Self-consistency convergence accuracy:
  | Change of charge density      : 0.6259E-02
  | Change of sum of eigenvalues  : -.1458E+01 eV
  | Change of total energy        : 0.2298E-03 eV

  End self-consistency iteration #     7       :  max(cpu_time)    wall_clock(cpu1)
  | Time for this iteration                    :        2.139 s           2.139 s
  | Charge density update                      :        0.674 s           0.674 s
  | Density mixing                             :        0.013 s           0.013 s
  | Hartree multipole update                   :        0.005 s           0.005 s
  | Hartree multipole summation                :        0.364 s           0.364 s
  | Integration                                :        1.025 s           1.025 s
  | Solution of K.-S. eqns.                    :        0.057 s           0.057 s
  | Total energy evaluation                    :        0.001 s           0.001 s
------------------------------------------------------------

------------------------------------------------------------
          Begin self-consistency iteration #    8

  Date     :  20150727, Time     :  120934.889
------------------------------------------------------------
  Evaluating new KS density.
  Integration grid: deviation in total charge (<rho> - N_e) =   1.421085E-14
  Pulay mixing of updated and previous charge densities.

  Evaluating partitioned Hartree potential by multipole expansion.
  | Analytical far-field extrapolation by fixed multipoles:
  | Hartree multipole sum: apparent total charge =  -0.446897E-05
  Summing up the Hartree potential.
  Time summed over all CPUs for potential: real work        2.894 s, elapsed        2.906 s
  | RMS charge density error from multipole expansion :   0.184281E-01

  Integrating Hamiltonian matrix: batch-based integration.
  Time summed over all CPUs for integration: real work        8.007 s, elapsed        8.192 s

  Updating Kohn-Sham eigenvalues, eigenvectors, occupation numbers, and Fermi level.
  Solving generalized eigenproblem
  Updating Kohn-Sham eigenvalues and eigenfunctions.
  Solving real generalised eigenvalue problem by standard LAPACK (fast)
  Determining occupation numbers for Kohn-Sham eigenstates.
  | Chemical potential (Fermi level) in eV                 : -.19063764E+01
  | Error in electron count due to remaining E_F inaccuracy: 0.74754496E-08
  | Maximum occupation number of highest empty state:  0.00E+00

  Highest occupied state (VBM) at     -1.90637637 eV
  | Occupation number:      1.00000001

  Lowest unoccupied state (CBM) at    -1.15466962 eV
  | Occupation number:      0.00000000

  Overall HOMO-LUMO gap:      0.75170675 eV.

  Total energy components:
  | Sum of eigenvalues            :        -210.15746257 Ha       -5718.67551964 eV
  | XC energy correction          :         -46.90251661 Ha       -1276.28241352 eV
  | XC potential correction       :          59.95913419 Ha        1631.57105485 eV
  | Free-atom electrostatic energy:        -178.38900389 Ha       -4854.21177545 eV
  | Hartree energy correction     :          -7.78975745 Ha        -211.97008504 eV
  | van der Waals energy corr.    :           0.00000000 Ha           0.00000000 eV
  | Entropy correction            :          -0.00010367 Ha          -0.00282095 eV
  | ---------------------------
  | Total energy                  :        -383.27960633 Ha      -10429.56873879 eV
  | Total energy, T -> 0          :        -383.27971000 Ha      -10429.57155974 eV  <-- do not rely on this value for anything but (periodic) metals
  | Electronic free energy        :        -383.27981366 Ha      -10429.57438069 eV

  Derived energy quantities:
  | Kinetic energy                :         382.46217324 Ha       10407.32525262 eV
  | Electrostatic energy          :        -718.83926295 Ha      -19560.61157789 eV
  | Energy correction for multipole
  | error in Hartree potential    :          -0.00585669 Ha          -0.15936864 eV
  | Sum of eigenvalues per atom                           :        -357.41721998 eV
  | Total energy (T->0) per atom                          :        -651.84822248 eV  <-- do not rely on this value for anything but (periodic) metals
  | Electronic free energy per atom                       :        -651.84839879 eV

  Self-consistency convergence accuracy:
  | Change of charge density      : 0.2574E-02
  | Change of sum of eigenvalues  : -.1011E+01 eV
  | Change of total energy        : 0.1802E-03 eV

  End self-consistency iteration #     8       :  max(cpu_time)    wall_clock(cpu1)
  | Time for this iteration                    :        2.140 s           2.140 s
  | Charge density update                      :        0.674 s           0.674 s
  | Density mixing                             :        0.014 s           0.014 s
  | Hartree multipole update                   :        0.005 s           0.005 s
  | Hartree multipole summation                :        0.364 s           0.364 s
  | Integration                                :        1.026 s           1.026 s
  | Solution of K.-S. eqns.                    :        0.057 s           0.057 s
  | Total energy evaluation                    :        0.000 s           0.000 s
------------------------------------------------------------

------------------------------------------------------------
          Begin self-consistency iteration #    9

  Date     :  20150727, Time     :  120937.029
------------------------------------------------------------
  Evaluating new KS density.
  Integration grid: deviation in total charge (<rho> - N_e) =   7.475435E-09
  Pulay mixing of updated and previous charge densities.

  Evaluating partitioned Hartree potential by multipole expansion.
  | Analytical far-field extrapolation by fixed multipoles:
  | Hartree multipole sum: apparent total charge =  -0.445237E-05
  Summing up the Hartree potential.
  Time summed over all CPUs for potential: real work        2.894 s, elapsed        2.906 s
  | RMS charge density error from multipole expansion :   0.184220E-01

  Integrating Hamiltonian matrix: batch-based integration.
  Time summed over all CPUs for integration: real work        8.005 s, elapsed        8.183 s

  Updating Kohn-Sham eigenvalues, eigenvectors, occupation numbers, and Fermi level.
  Solving generalized eigenproblem
  Updating Kohn-Sham eigenvalues and eigenfunctions.
  Solving real generalised eigenvalue problem by standard LAPACK (fast)
  Determining occupation numbers for Kohn-Sham eigenstates.
  | Chemical potential (Fermi level) in eV                 : -.19068824E+01
  | Error in electron count due to remaining E_F inaccuracy: 0.50780429E-08
  | Maximum occupation number of highest empty state:  0.00E+00

  Highest occupied state (VBM) at     -1.90688235 eV
  | Occupation number:      1.00000001

  Lowest unoccupied state (CBM) at    -1.15451411 eV
  | Occupation number:      0.00000000

  Overall HOMO-LUMO gap:      0.75236825 eV.

  Total energy components:
  | Sum of eigenvalues            :        -210.15686243 Ha       -5718.65918897 eV
  | XC energy correction          :         -46.90266965 Ha       -1276.28657793 eV
  | XC potential correction       :          59.95933832 Ha        1631.57660945 eV
  | Free-atom electrostatic energy:        -178.38900389 Ha       -4854.21177545 eV
  | Hartree energy correction     :          -7.79040779 Ha        -211.98778186 eV
[...]
   Van der Waals               : -.534616E-03 0.241514E-02 0.177640E-03
   ----------------------------------------------------------------
   Total forces(   7)            : 0.218363E+00 0.499559E+00 0.284097E+00
  atom #    8
   Hellmann-Feynman + Multipole  : -.619928E+01 -.666741E+01 0.887443E+01
   Pulay + GGA                   : 0.656899E+01 0.576650E+01 -.627002E+01
   Van der Waals               : -.675652E-02 0.101781E-02 0.100625E-02
   ----------------------------------------------------------------
   Total forces(   8)            : 0.362952E+00 -.899896E+00 0.260542E+01
  atom #    9
   Hellmann-Feynman + Multipole  : 0.292899E-01 0.186352E+00 0.175406E+00
   Pulay + GGA                   : 0.493043E-01 0.749458E-01 0.103333E-01
   Van der Waals               : -.275936E-02 0.343493E-02 -.108685E-03
   ----------------------------------------------------------------
   Total forces(   9)            : 0.758347E-01 0.264733E+00 0.185631E+00
  atom #   10
   Hellmann-Feynman + Multipole  : -.304621E+00 0.316428E+00 -.255541E+01
   Pulay + GGA                   : -.302352E-01 0.238720E-01 -.122127E+00
   Van der Waals               : -.111177E-02 0.338674E-02 0.962374E-03
   ----------------------------------------------------------------
   Total forces(  10)            : -.335968E+00 0.343687E+00 -.267657E+01
  atom #   11
   Hellmann-Feynman + Multipole  : -.105659E+02 -.289073E+01 0.684249E+00
   Pulay + GGA                   : 0.111809E+02 0.411155E+01 -.137794E+01
   Van der Waals               : 0.267243E-02 -.343776E-02 0.204538E-02
   ----------------------------------------------------------------
   Total forces(  11)            : 0.617632E+00 0.121739E+01 -.691641E+00
  atom #   12
   Hellmann-Feynman + Multipole  : -.596871E-02 -.228747E+00 0.944711E-01
   Pulay + GGA                   : 0.134022E+00 -.738923E-01 0.277601E-01
   Van der Waals               : 0.162981E-02 -.101387E-02 0.164726E-02
   ----------------------------------------------------------------
   Total forces(  12)            : 0.129683E+00 -.303654E+00 0.123878E+00
  atom #   13
   Hellmann-Feynman + Multipole  : -.591660E+00 -.100385E+01 0.457014E+00
   Pulay + GGA                   : 0.436251E-01 0.112190E+00 -.740287E-01
   Van der Waals               : -.126603E-02 -.325705E-02 0.366866E-03
   ----------------------------------------------------------------
   Total forces(  13)            : -.549301E+00 -.894912E+00 0.383352E+00
  atom #   14
   Hellmann-Feynman + Multipole  : 0.131535E+01 -.152170E+02 0.161840E+01
   Pulay + GGA                   : -.332612E+00 0.152561E+02 -.295152E+01
   Van der Waals               : -.958239E-03 -.786456E-02 -.283008E-02
   ----------------------------------------------------------------
   Total forces(  14)            : 0.981785E+00 0.312862E-01 -.133594E+01
  atom #   15
   Hellmann-Feynman + Multipole  : -.275714E+00 0.489267E+00 0.266940E+00
   Pulay + GGA                   : -.697710E-01 0.911886E-01 0.826131E-01
   Van der Waals               : 0.375261E-02 -.187526E-02 -.481978E-02
   ----------------------------------------------------------------
   Total forces(  15)            : -.341732E+00 0.578580E+00 0.344733E+00
  atom #   16
   Hellmann-Feynman + Multipole  : -.792896E+00 -.776604E+00 0.125067E+01
   Pulay + GGA                   : 0.368276E-01 0.623903E-01 -.691098E-01
   Van der Waals               : -.200051E-04 -.510010E-02 -.436586E-03
   ----------------------------------------------------------------
   Total forces(  16)            : -.756089E+00 -.719314E+00 0.118113E+01
  Timings for vdw_correction_hirshfeld (Tkatchenko-Scheffler 2009):
  | CPU time:        5.684 s, Wall clock time:        5.683 s.
  Removing unitary transformations (pure translations, rotations) from forces on atoms.
  Atomic forces before filtering:
  | Net force on center of mass :  0.103409E-01 0.243036E-02 -.796073E-02 eV/A
  | Net torque on center of mass:  0.311807E-02 0.184129E-01 -.133902E-01 eV
  Atomic forces after filtering:
  | Net force on center of mass :  -.356812E-15 0.446015E-15 -.178406E-15 eV/A
  | Net torque on center of mass:  0.000000E+00 0.000000E+00 0.472042E-15 eV
 
  Energy and forces in a compact form:
  | Total energy uncorrected      :         -0.104296521397619E+05 eV
  | Total energy corrected        :         -0.104296549607098E+05 eV  <-- do not rely on this value for anything but (periodic) metals
  | Electronic free energy        :         -0.104296577816577E+05 eV
  Total atomic forces (unitary forces cleaned) [eV/Ang]:
  |   1          0.222882382515510E+00          0.114869648875338E+01         -0.139445967890098E+01
  |   2          0.194207630179923E+00         -0.470855714352864E+00          0.101794840383379E+00
  |   3         -0.457716314732334E+00         -0.162648159794606E+00          0.648801920568404E-01
  |   4          0.136516447695548E-01         -0.133125791651007E+00          0.877268590489457E+00
  |   5         -0.249469693804490E+00         -0.150509227089621E+01         -0.107773545391644E+01
  |   6         -0.118085820287404E+00          0.100762000438276E+01          0.102058272800047E+01
  |   7          0.217608797421981E+00          0.499311602555670E+00          0.284389908895705E+00
  |   8          0.362981719033933E+00         -0.900239226347639E+00          0.260565857173336E+01
  |   9          0.755729475237258E-01          0.264491397495406E+00          0.186018661494347E+00
  |  10         -0.335619920484857E+00          0.343287486280293E+00         -0.267639014620215E+01
  |  11          0.616712880819200E+00          0.121732849519546E+01         -0.691004334728352E+00
  |  12          0.128712086282682E+00         -0.303534841829753E+00          0.124848821237715E+00
  |  13         -0.550227602196259E+00         -0.894918197846769E+00          0.384087002705784E+00
  |  14          0.980097818676891E+00          0.309976252412315E-01         -0.133588354567281E+01
  |  15         -0.343734204524885E+00          0.578216334537074E+00          0.344594180499988E+00
  |  16         -0.757574351193172E+00         -0.719535231722427E+00          0.118134966192369E+01
 
  ------------------------------------ 
  Start decomposition of the XC Energy 
  ------------------------------------ 
  Hartree-Fock part   :          0.000000000 Ha              0.000000000 eV
  ------------------------------------ 
  X Energy            :        -45.241421346 Ha          -1231.081711562 eV
  C Energy GGA        :         -1.661741306 Ha            -45.218281606 eV
  Total XC Energy     :        -46.903162651 Ha          -1276.299993168 eV
  LDA X and C from self-consistent density 
  X Energy LDA        :        -40.788065408 Ha          -1109.899730827 eV
  C Energy LDA        :         -3.340535414 Ha            -90.900593589 eV
  ------------------------------------ 
  End decomposition of the XC Energy 
  ------------------------------------ 
  Performing Hirshfeld analysis of fragment charges and moments.
  ----------------------------------------------------------------------
  | Atom     1: O
  |   Hirshfeld charge        :     -0.14177399
  |   Free atom volume        :     23.95238533
  |   Hirshfeld volume        :     22.37938673
  |   Hirshfeld dipole vector :     -0.01330365       0.02583437       0.02686559
  |   Hirshfeld dipole moment :      0.03957476
  |   Hirshfeld second moments:      0.06834424      -0.00834274      -0.00552943
  |                                 -0.00834274       0.03003934      -0.02780336
  |                                 -0.00552943      -0.02780336       0.04473835
  ----------------------------------------------------------------------
  | Atom     2: H
  |   Hirshfeld charge        :      0.10880974
  |   Free atom volume        :     10.44207651
  |   Hirshfeld volume        :     10.03738930
  |   Hirshfeld dipole vector :     -0.02047527       0.00941214       0.00282059
  |   Hirshfeld dipole moment :      0.02271081
  |   Hirshfeld second moments:      0.02987769       0.01353834       0.00014838
  |                                  0.01353834       0.02563250       0.01026139
  |                                  0.00014838       0.01026139       0.05727823
  ----------------------------------------------------------------------
  | Atom     3: H
  |   Hirshfeld charge        :      0.06167477
  |   Free atom volume        :     10.44207651
  |   Hirshfeld volume        :     15.73608622
  |   Hirshfeld dipole vector :     -0.04124643      -0.01695731       0.00308215
  |   Hirshfeld dipole moment :      0.04470255
  |   Hirshfeld second moments:     -0.12062520      -0.04412570      -0.00873877
  |                                 -0.04412570      -0.04240350      -0.00840458
  |                                 -0.00873877      -0.00840458      -0.03570442
  ----------------------------------------------------------------------
  | Atom     4: H
  |   Hirshfeld charge        :      0.10379701
  |   Free atom volume        :     10.44207651
  |   Hirshfeld volume        :      9.85114939
  |   Hirshfeld dipole vector :     -0.02922480      -0.00039149       0.01674402
  |   Hirshfeld dipole moment :      0.03368389
  |   Hirshfeld second moments:      0.04968232       0.00192777       0.00560480
  |                                  0.00192777       0.05908746       0.00140095
  |                                  0.00560480       0.00140095       0.01600048
  ----------------------------------------------------------------------
  | Atom     5: O
  |   Hirshfeld charge        :     -0.22067548
  |   Free atom volume        :     23.95238533
  |   Hirshfeld volume        :     22.01404210
  |   Hirshfeld dipole vector :     -0.03267108       0.02450209      -0.00141693
  |   Hirshfeld dipole moment :      0.04086269
  |   Hirshfeld second moments:      0.02262021       0.04693122      -0.00930644
  |                                  0.04693122       0.03863394       0.01841245
  |                                 -0.00930644       0.01841245       0.05970853
  ----------------------------------------------------------------------
  | Atom     6: H
  |   Hirshfeld charge        :      0.12775970
  |   Free atom volume        :     10.44207651
  |   Hirshfeld volume        :     10.22642485
  |   Hirshfeld dipole vector :      0.00330664       0.05967616       0.05042314
  |   Hirshfeld dipole moment :      0.07819636
  |   Hirshfeld second moments:      0.02591125       0.00191907       0.00128851
  |                                  0.00191907       0.03988112      -0.00152393
  |                                  0.00128851      -0.00152393       0.06643514
  ----------------------------------------------------------------------
  | Atom     7: H
  |   Hirshfeld charge        :      0.13887130
  |   Free atom volume        :     10.44207651
  |   Hirshfeld volume        :      9.34793686
  |   Hirshfeld dipole vector :     -0.07308433      -0.04355671       0.01484283
  |   Hirshfeld dipole moment :      0.08636444
  |   Hirshfeld second moments:      0.04594636       0.01322007       0.00347152
  |                                  0.01322007       0.06856708       0.01168333
  |                                  0.00347152       0.01168333       0.07310391
  ----------------------------------------------------------------------
  | Atom     8: O
  |   Hirshfeld charge        :     -0.21335010
  |   Free atom volume        :     23.95238533
  |   Hirshfeld volume        :     21.84931606
  |   Hirshfeld dipole vector :      0.02411034       0.00407073      -0.01181179
  |   Hirshfeld dipole moment :      0.02715507
  |   Hirshfeld second moments:      0.00079366      -0.00119505       0.03195567
  |                                 -0.00119505       0.06277691       0.00422163
  |                                  0.03195567       0.00422163       0.07226382
  ----------------------------------------------------------------------
  | Atom     9: H
  |   Hirshfeld charge        :      0.09805989
  |   Free atom volume        :     10.44207651
  |   Hirshfeld volume        :      9.94113237
  |   Hirshfeld dipole vector :      0.00344550       0.03292567       0.01897130
  |   Hirshfeld dipole moment :      0.03815602
  |   Hirshfeld second moments:      0.01610621      -0.01501776       0.00889747
  |                                 -0.01501776       0.04197469      -0.01364790
  |                                  0.00889747      -0.01364790       0.05869258
  ----------------------------------------------------------------------
  | Atom    10: H
  |   Hirshfeld charge        :      0.12408651
  |   Free atom volume        :     10.44207651
  |   Hirshfeld volume        :     10.20817391
  |   Hirshfeld dipole vector :     -0.02220097       0.00805667      -0.07529757
  |   Hirshfeld dipole moment :      0.07891462
  |   Hirshfeld second moments:      0.03025249       0.00150393       0.01460726
  |                                  0.00150393       0.06787410       0.00540748
  |                                  0.01460726       0.00540748       0.04653913
  ----------------------------------------------------------------------
  | Atom    11: O
  |   Hirshfeld charge        :     -0.20962287
  |   Free atom volume        :     23.95238533
  |   Hirshfeld volume        :     22.18942422
  |   Hirshfeld dipole vector :     -0.01195262      -0.00499412       0.01177855
  |   Hirshfeld dipole moment :      0.01750830
  |   Hirshfeld second moments:      0.03360151       0.00672111       0.00993649
  |                                  0.00672111       0.05354746      -0.02186087
  |                                  0.00993649      -0.02186087       0.02503507
  ----------------------------------------------------------------------
  | Atom    12: H
  |   Hirshfeld charge        :      0.06558846
  |   Free atom volume        :     10.44207651
  |   Hirshfeld volume        :     13.60841515
  |   Hirshfeld dipole vector :     -0.01013244       0.00406548       0.02833557
  |   Hirshfeld dipole moment :      0.03036609
  |   Hirshfeld second moments:     -0.05924354       0.04469399       0.00089394
  |                                  0.04469399      -0.00501640      -0.00409765
  |                                  0.00089394      -0.00409765      -0.01441994
  ----------------------------------------------------------------------
  | Atom    13: H
  |   Hirshfeld charge        :      0.09959844
  |   Free atom volume        :     10.44207651
  |   Hirshfeld volume        :     11.57472332
  |   Hirshfeld dipole vector :     -0.00206293       0.05688159      -0.01751603
  |   Hirshfeld dipole moment :      0.05955319
  |   Hirshfeld second moments:      0.01572970      -0.00419486       0.00988158
  |                                 -0.00419486       0.02452564      -0.00731985
  |                                  0.00988158      -0.00731985       0.01380730
  ----------------------------------------------------------------------
  | Atom    14: O
  |   Hirshfeld charge        :     -0.33800961
  |   Free atom volume        :     23.95238533
  |   Hirshfeld volume        :     23.56268970
  |   Hirshfeld dipole vector :     -0.00731990       0.06740265      -0.01420113
  |   Hirshfeld dipole moment :      0.06927027
  |   Hirshfeld second moments:     -0.04383036      -0.02093860      -0.06099077
  |                                 -0.02093860      -0.02528826       0.01099845
  |                                 -0.06099077       0.01099845      -0.00272752
  ----------------------------------------------------------------------
  | Atom    15: H
  |   Hirshfeld charge        :      0.11591715
  |   Free atom volume        :     10.44207651
  |   Hirshfeld volume        :      7.88748981
  |   Hirshfeld dipole vector :     -0.06105541       0.08520743       0.05996405
  |   Hirshfeld dipole moment :      0.12076322
  |   Hirshfeld second moments:      0.07557516      -0.00129187      -0.01813017
  |                                 -0.00129187       0.07858123      -0.00343021
  |                                 -0.01813017      -0.00343021       0.09392379
  ----------------------------------------------------------------------
  | Atom    16: H
  |   Hirshfeld charge        :      0.07921753
  |   Free atom volume        :     10.44207651
  |   Hirshfeld volume        :      9.32595532
  |   Hirshfeld dipole vector :      0.01378765       0.03882009      -0.04229737
  |   Hirshfeld dipole moment :      0.05904377
  |   Hirshfeld second moments:      0.03585104      -0.01783410       0.00179204
  |                                 -0.01783410       0.06191407       0.01709045
  |                                  0.00179204       0.01709045       0.03317660
  ----------------------------------------------------------------------


------------------------------------------------------------------------------
  Final output of selected total energy values:

  The following output summarizes some interesting total energy values
  at the end of a run (AFTER all relaxation, molecular dynamics, etc.).

  | Total energy of the DFT / Hartree-Fock s.c.f. calculation      :         -10429.652139762 eV
  | Final zero-broadening corrected energy (caution - metals only) :         -10429.654960710 eV
  | For reference only, the value of 1 Hartree used in FHI-aims is :             27.211384500 eV

  Before relying on these values, please be sure to understand exactly which
  total energy value is referred to by a given number. Different objects may
  all carry the same name 'total energy'. Definitions:

  Total energy of the DFT / Hartree-Fock s.c.f. calculation:
  | Note that this energy does not include ANY quantities calculated after the
  | s.c.f. cycle, in particular not ANY RPA, MP2, etc. many-body perturbation terms.

  Final zero-broadening corrected energy:
  | For metallic systems only, a broadening of the occupation numbers at the Fermi
  | level can be extrapolated back to zero broadening by an electron-gas inspired
  | formula. For all systems that are not real metals, this value can be
  | meaningless and should be avoided.

------------------------------------------------------------------------------

------------------------------------------------------------
          Leaving FHI-aims.
          Date     :  20150727, Time     :  120958.473

          Computational steps:
          | Number of self-consistency cycles          :           16

          Detailed time accounting                     :  max(cpu_time)    wall_clock(cpu1)
          | Total time                                 :       41.297 s          41.316 s
          | Preparation time                           :        0.172 s           0.543 s
          | Grid partitioning                          :        0.138 s           0.137 s
          | Preloading free-atom quantities on grid    :        0.014 s           0.013 s
          | Free-atom superposition energy             :        0.072 s           0.072 s
          | Total time for integrations                :       17.987 s          17.992 s
          | Total time for solution of K.-S. equations :        1.124 s           1.119 s
          | Total time for density & force components  :       13.727 s          13.729 s
          | Total time for mixing                      :        0.216 s           0.217 s
          | Total time for Hartree multipole update    :        0.080 s           0.080 s
          | Total time for Hartree multipole sum       :        7.033 s           7.033 s
          | Total time for total energy evaluation     :        0.005 s           0.003 s
          | Total time for scaled ZORA corrections     :        0.000 s           0.000 s
          | Total time for TS (2009) vdW correction    :        0.058 s           0.058 s

          Have a nice day.
------------------------------------------------------------
