  MPI-parallelism will be employed.
------------------------------------------------------------
          Invoking FHI-aims ...
          Version 081213
          Compiled on 2013/08/29 at 17:41:06 on host generoso.

          When using FHI-aims, please cite the following reference:

          Volker Blum, Ralf Gehrke, Felix Hanke, Paula Havu,
          Ville Havu, Xinguo Ren, Karsten Reuter, and Matthias Scheffler,
          'Ab Initio Molecular Simulations with Numeric Atom-Centered Orbitals: FHI-aims',
          Computer Physics Communications 180, 2175-2196 (2009)

          For any questions about FHI-aims, please visit the aimsclub website
          with its forums and wiki. Contributions to both the forums and the
          wiki are warmly encouraged - they are for you, and everyone is welcome there.

------------------------------------------------------------

  Date     :  20150727, Time     :  120502.300
  Time zero on CPU 1             :   0.519910000000000E-01  s.
  Internal wall clock time zero  :           207230702.300  s.

  Using        8 parallel tasks.
  Task        0 on host gen59 reporting.
  Task        1 on host gen59 reporting.
  Task        2 on host gen59 reporting.
  Task        3 on host gen59 reporting.
  Task        4 on host gen59 reporting.
  Task        5 on host gen59 reporting.
  Task        6 on host gen59 reporting.
  Task        7 on host gen59 reporting.

  Performing system and environment tests:
  | Environment variable OMP_NUM_THREADS correctly set to 1.
  | Checking for scalapack...
  | No scalapack compiled in.

  Obtaining array dimensions for all initial allocations:
  
  -----------------------------------------------------------------------
  Parsing control.in (first pass over file, find array dimensions only).
  The contents of control.in will be repeated verbatim below
  unless switched off by setting 'verbatim_writeout .false.' .
  in the first line of control.in .
  -----------------------------------------------------------------------
  
  #########################################################################################
  #
  #  Volker Blum, FHI 2008 : Test run input file control.in
  #
  #########################################################################################
  #
  #  Physical model
  #
    xc                 rpbe
    spin               none
    relativistic       atomic_zora scalar
    charge             0.
   vdw_correction_hirshfeld
  #
  #  SCF convergence
  #
    occupation_type    gaussian 0.01
    mixer              pulay
      n_max_pulay        10
      charge_mix_param   0.1
    sc_accuracy_rho    5E-5
    sc_accuracy_eev    5E-3
    sc_accuracy_etot   5E-6
    sc_iter_limit      3000
  #
  #  Eigenvalue solver
  #
    KS_method          lapack
      empty_states       8
      basis_threshold    0.e-5
  #
  #  Efficiency
  #
  #   all previous settings are now default, except stratmann still
  #   undecided. Continue to handle stratmann with care, if at all.
  #
  #  partition_type stratmann
    partition_type rho_r2
  #  hartree_partition_type stratmann
  #
  #  Oprions for large clusters (100's of atoms: memory saving / better scaling)
  #
  # for periodic systems:
  #
    density_update_method orbital
    packed_matrix_format none
  #  k_grid 6 6 6
  #  output k_eigenvalue 1
  #  distributed_spline_storage .true.
  #
  #  Relaxation
  #
  #  relax_geometry   bfgs 5.e-3
    sc_accuracy_forces 5.E-4
    final_forces_cleaned .true.
  #
  #  Output options
  #
  #  output mulliken
    output Hirshfeld
  #  output dipole
  
  #harmonic_length_scale 0.001
  
  ################################################################################
  #
  #  FHI-aims code project
  #  VB, Fritz-Haber Institut, 2007
  #
  #  Suggested "safe" defaults for H atom (to be pasted into control.in file)
  #  Basis constructed for a non-relativistic H2 molecule using the
  #  PW-LDA functional.
  #
  ################################################################################
    species        H
  #     global species definitions
      nucleus             1
      cut_pot             4.0  2.0  1.0
      cut_free_atom       finite 8.0
      logarithmic         0.00010000 100.00  1.0123
      basis_dep_cutoff    1d-4  # 1d-4 is safe default - please check 5d-4 if you wish!
      radial_base         24 7.0
      radial_multiplier   2
      angular_grids       specified
        division   0.2783  110
        division   0.3822  194
        division   0.5626  302
  #      division   0.5922  434
  #      division   0.6227  590
  #      division   0.7206  770
        outer_grid  302
      l_hartree           4
  ################################################################################
  #
  #  Definition of "minimal" basis
  #
  ################################################################################
  #     valence basis states
      valence      1  s   1.
  #     ion occupancy
      ion_occ      1  s   0.5
  ################################################################################
  #
  #  Suggested additional basis functions. For production calculations,
  #  uncomment them one after another (the most important basis functions are
  #  listed first).
  #
  ################################################################################
  #  "First tier" - improvements: -1014.90 meV to -62.69 meV
       hydro 2 s 2.1
       hydro 2 p 3.5
  #  "Second tier" - improvements: -12.89 meV to -1.83 meV
       hydro 1 s 0.85
       hydro 2 p 3.7
       hydro 2 s 1.2
       hydro 3 d 7
  #  "Third tier" - improvements: -0.25 meV to -0.12 meV
  #     hydro 4 f 11.2
  #     hydro 3 p 4.8
  #     hydro 4 d 9
  #     hydro 3 s 3.2
  
  ################################################################################
  #
  #  FHI-aims code project
  #  VB, Fritz-Haber Institut, 2007
  #
  #  Suggested "safe" defaults for O atom (to be pasted into control.in file)
  #  All values have been tested for a non-relativistic, non-spinpolarized O2
  #  molecule using the PW-LDA functional. Validity for PBE is expected.
  #
  #  Constructed for dimers: 1.0 A, 1.208 A, 1.5 A, 2.0 A, 3.0 A
  #
  ################################################################################
    species        O
  #     global species definitions
      nucleus             8
      mass                15.9994
      l_hartree           4
      cut_pot             4.0  2.0  1.0
      cut_free_atom       finite 8.0
      basis_dep_cutoff    1d-4  # 1d-4 is safe default - please check 5d-4 if you wish!
      logarithmic         0.00010000 100.00  1.0123
      radial_base         36 7.0
      radial_multiplier   2
       angular_grids specified
        division   0.4087  110
        division   0.5181  194
        division   0.6184  302
  #      division   0.7315  434
  #      division   0.7934  590
  #      division   0.9656  770
  #      division   1.4041  974
  #      outer_grid 974
        outer_grid 302
  ################################################################################
  #
  #  Definition of "minimal" basis
  #
  ################################################################################
  #     valence basis states
      valence      2  s   2.
      valence      2  p   4.
  #     ion occupancy
      ion_occ      2  s   1.
      ion_occ      2  p   3.
  ################################################################################
  #
  #  Suggested additional basis functions. For production calculations,
  #  uncomment them one after another (the most important basis functions are
  #  listed first).
  #
  ################################################################################
  #  "First tier" - improvements: -699.05 meV to -159.38 meV
       hydro 2 p 1.8
       hydro 3 d 7.6
       hydro 3 s 6.4
  #  "Second tier" - improvements: -49.91 meV to -5.39 meV
       hydro 4 f 11.6
       hydro 3 p 6.2
       hydro 3 d 5.6
       hydro 5 g 17.6
       hydro 1 s 0.75
  #  "Third tier" - improvements: -2.83 meV to -0.50 meV
  #     ionic 2 p auto
  #     hydro 4 f 10.8
  #     hydro 4 d 4.7
  #     hydro 2 s 6.8
  #  "Fourth tier" - improvements: -0.40 meV to -0.12 meV
  #     hydro 3 p 5
  #     hydro 3 s 3.3
  #     hydro 5 g 15.6
  #     hydro 4 f 17.6
  #     hydro 4 d 14
  # Further basis functions - -0.08 meV and below
  #     hydro 3 s 2.1
  #     hydro 4 d 11.6
  #     hydro 3 p 16
  #     hydro 2 s 17.2
  
  
  -----------------------------------------------------------------------
  Completed first pass over input file control.in .
  -----------------------------------------------------------------------
  
  
  -----------------------------------------------------------------------
  Parsing geometry.in (first pass over file, find array dimensions only).
  The contents of geometry.in will be repeated verbatim below
  unless switched off by setting 'verbatim_writeout .false.' .
  in the first line of geometry.in .
  -----------------------------------------------------------------------
  
  atom      -4.053030000      0.065001000     -1.525160000  O
  atom      -4.566710000      0.974813000     -1.912820000  H
  atom      -3.067820000      0.330172000     -1.477310000  H
  atom      -4.370360000     -0.049164000     -0.572274000  H
  atom      -4.581760000     -0.256435000      0.939478000  O
  atom      -4.349860000      0.471090000      1.504340000  H
  atom      -5.393870000     -0.726611000      1.228070000  H
  atom      -5.293160000      2.192130000     -2.328800000  O
  atom      -4.829300000      2.988660000     -1.973850000  H
  atom      -5.428570000      2.328640000     -3.235170000  H
  atom      -3.818880000      2.024990000      2.187990000  O
  atom      -3.690880000      1.961360000      3.202150000  H
  atom      -4.546490000      2.751300000      2.045370000  H
  atom      -5.628340000      3.730740000      1.385610000  O
  atom      -6.090650000      4.418470000      1.860350000  H
  atom      -5.158540000      4.200260000      0.615875000  H
  
  -----------------------------------------------------------------------
  Completed first pass over input file geometry.in .
  -----------------------------------------------------------------------
  
 
  Basic array size parameters: 
  | Number of species                 :        2
  | Number of atoms                   :       16
  | Max. basis fn. angular momentum   :        4
  | Max. atomic/ionic basis occupied n:        2
  | Max. number of basis fn. types    :        2
  | Max. radial fns per species/type  :        8
  | Max. logarithmic grid size        :     1301
  | Max. radial integration grid size :       73
  | Max. angular integration grid size:      302
  | Max. angular grid division number :        8
  | Radial grid for Hartree potential :     1301
  | Number of spin channels           :        1

------------------------------------------------------------
          Reading file control.in.
------------------------------------------------------------
  XC: Using RPBE gradient-corrected functionals.
  Spin treatment: No spin polarisation.
  Scalar relativistic treatment of kinetic energy: on-site free-atom approximation to ZORA.
  Charge =   0.000000E+00: Neutral system requested explicitly.
  Using non-empirical van der Waals correction (Hirshfeld partitioning):
  Occupation type: Gaussian broadening, width =   0.100000E-01 eV.
  Using pulay charge density mixing.
  Pulay mixing - number of memorized iterations:   10
  Charge density mixing - mixing parameter:     0.1000
  Convergence accuracy of self-consistent charge density: 0.5000E-04
  Convergence accuracy of sum of eigenvalues: 0.5000E-02
  Convergence accuracy of total energy: 0.5000E-05
  Maximum number of s.-c. iterations  :  3000
  Kohn-Sham eigenvalues and eigenfunctions calculated by lapack diagonalisation (D&C).
  Number of empty states per atom:        8
  Threshold for basis singularities: 0.0000E+00
  Partition function in integrals calculations: rho / r^2
 Using packed matrix format           0
  Convergence accuracy of forces: 0.5000E-03
  Cleaning forces before final output.
  Hirshfeld charge analysis will be performed.
 
  Reading configuration options for species H                   .
  | Found nuclear charge :   1.0000
  | Found cutoff potl. onset [A], width [A], scale factor :    4.00000    2.00000    1.00000
  | Found cutoff specification for free atom: Cutoff potential begins at    8.00000 A.
  | Found logarithmic grid data [bohr] : 0.1000E-03 0.1000E+03 0.1012E+01
  | Threshold for basis-dependent cutoff potential is   0.100000E-03
  | Found data for basic radial integration grid :    24 points, outermost radius =    7.000 A
  | Found multiplier for basic radial grid :   2
  | Found angular grid specification: user-specified.
  | Specified grid contains     4 separate shells.
  | Check grid settings after all constraints further below.
  | Found l_max for Hartree potential  :   4
  | Found free-atom valence shell :  1 s   1.000
  | No ionic wave fns used. Skipping ion_occ.
  | Found hydrogenic basis function :  2 s   2.100
  | Found hydrogenic basis function :  2 p   3.500
  | Found hydrogenic basis function :  1 s   0.850
  | Found hydrogenic basis function :  2 p   3.700
  | Found hydrogenic basis function :  2 s   1.200
  | Found hydrogenic basis function :  3 d   7.000
  Species H                   : Missing cutoff potential type.
  Defaulting to exp(1/x)/(1-x)^2 type cutoff potential.
  Species H : On-site basis accuracy parameter (for Gram-Schmidt orthonormalisation) not specified.
  Using default value basis_acc =  0.1000000E-03.
  Species H                   : Using default innermost maximum threshold i_radial=  2 for radial functions.
  Species H                   : Basic radial grid will be enhanced according to radial_multiplier =   2, to contain    49 grid points.
 
  Reading configuration options for species O                   .
  | Found nuclear charge :   8.0000
  | Found atomic mass :    15.9994000000000      amu
  | Found l_max for Hartree potential  :   4
  | Found cutoff potl. onset [A], width [A], scale factor :    4.00000    2.00000    1.00000
  | Found cutoff specification for free atom: Cutoff potential begins at    8.00000 A.
  | Threshold for basis-dependent cutoff potential is   0.100000E-03
  | Found logarithmic grid data [bohr] : 0.1000E-03 0.1000E+03 0.1012E+01
  | Found data for basic radial integration grid :    36 points, outermost radius =    7.000 A
  | Found multiplier for basic radial grid :   2
  | Found angular grid specification: user-specified.
  | Specified grid contains     4 separate shells.
  | Check grid settings after all constraints further below.
  | Found free-atom valence shell :  2 s   2.000
  | Found free-atom valence shell :  2 p   4.000
  | No ionic wave fns used. Skipping ion_occ.
  | No ionic wave fns used. Skipping ion_occ.
  | Found hydrogenic basis function :  2 p   1.800
  | Found hydrogenic basis function :  3 d   7.600
  | Found hydrogenic basis function :  3 s   6.400
  | Found hydrogenic basis function :  4 f  11.600
  | Found hydrogenic basis function :  3 p   6.200
  | Found hydrogenic basis function :  3 d   5.600
  | Found hydrogenic basis function :  5 g  17.600
  | Found hydrogenic basis function :  1 s   0.750
  Species O                   : Missing cutoff potential type.
  Defaulting to exp(1/x)/(1-x)^2 type cutoff potential.
  Species O : On-site basis accuracy parameter (for Gram-Schmidt orthonormalisation) not specified.
  Using default value basis_acc =  0.1000000E-03.
  Species O                   : Using default innermost maximum threshold i_radial=  2 for radial functions.
  Species O                   : Basic radial grid will be enhanced according to radial_multiplier =   2, to contain    73 grid points.
 
  Finished reading input file 'control.in'. Consistency checks are next.
 
  Target number of points in a grid batch is not set. Defaulting to  100
  Method for grid partitioning is not set. Defaulting to parallel hash+maxmin partitioning.
  Batch size limit is not set. Defaulting to    200
  By default, will store active basis functions for each batch.
  If in need of memory, prune_basis_once .false. can be used to disable this option.
  communication_type for Hartree potential was not specified.
  Defaulting to calc_hartree .
  Pulay mixer: Number of initial linear mixing iterations not set.
  Defaulting to    0 iterations.
  Work space size for distributed Hartree potential not set.
  Defaulting to   0.200000E+03 MB.
  Algorithm-dependent basis array size parameters:
  | n_max_pulay                         :       10
  Geometry relaxation not requested: no relaxation will be performed.
  Handling of forces: Unphysical translation and rotation will be removed from forces.
  No accuracy limit for integral partition fn. given. Defaulting to 0.1000E-14.
  No threshold value for u(r) in integrations given. Defaulting to 0.1000E-05.
  No accuracy for occupation numbers given. Defaulting to 0.1000E-07.
  No threshold value for occupation numbers given. Defaulting to 0.0000E+00.
  No accuracy for fermi level given. Defaulting to 0.1000E-19.
  Maximum # of iterations to find E_F not set. Defaulting to  200.
  Will not use alltoall communication since running on < 1024 CPUs.
  Partitioning for Hartree potential was not defined. Using partition_type for integrals.
  | Reporting present value of keyword multip_moments_threshold  :       0.10000000E-09
  | This value may affect high angular momentum components of the Hartree potential in periodic systems.
  No q(lm)/r^(l+1) cutoff set for long-range Hartree potential.
  | Using default value of  0.100000E-09 .
  | Verify using the multipole_threshold keyword.
  Defaulting to new monopole extrapolation.
  Density update method: Loop over occupied states selected for charge density update.
------------------------------------------------------------


------------------------------------------------------------
          Reading geometry description geometry.in.
------------------------------------------------------------
  Input structure read successfully.
  The structure contains       16 atoms,  and a total of         51.000 electrons.

  Input geometry:
  | No unit cell requested.
  | Atomic structure:
  |       Atom                x [A]            y [A]            z [A]
  |    1: Species O             -4.053030         0.065001        -1.525160
  |    2: Species H             -4.566710         0.974813        -1.912820
  |    3: Species H             -3.067820         0.330172        -1.477310
  |    4: Species H             -4.370360        -0.049164        -0.572274
  |    5: Species O             -4.581760        -0.256435         0.939478
  |    6: Species H             -4.349860         0.471090         1.504340
  |    7: Species H             -5.393870        -0.726611         1.228070
  |    8: Species O             -5.293160         2.192130        -2.328800
  |    9: Species H             -4.829300         2.988660        -1.973850
  |   10: Species H             -5.428570         2.328640        -3.235170
  |   11: Species O             -3.818880         2.024990         2.187990
  |   12: Species H             -3.690880         1.961360         3.202150
  |   13: Species H             -4.546490         2.751300         2.045370
  |   14: Species O             -5.628340         3.730740         1.385610
  |   15: Species H             -6.090650         4.418470         1.860350
  |   16: Species H             -5.158540         4.200260         0.615875
  |

  | The smallest distance between any two atoms is         0.92654057 AA.
  |
  | The first atom of this pair is atom number                      8 .
  | The second atom of this pair is atom number                    10 .

  Structure-dependent array size parameters: 
  | Maximum number of distinct radial functions  :       18
  | Maximum number of basis functions            :      360
  | Number of Kohn-Sham states (occupied + empty):       90
------------------------------------------------------------

------------------------------------------------------------
          Preparing all fixed parts of the calculation.
------------------------------------------------------------
  Determining machine precision:
    2.225073858507201E-308
  Setting up grids for atomic and cluster calculations.

  Creating wave function, potential, and density for free atoms.

  Species: H

  List of occupied orbitals and eigenvalues:
    n    l              occ      energy [Ha]    energy [eV]
    1    0           1.0000        -0.241408        -6.5691


  Species: O

  List of occupied orbitals and eigenvalues:
    n    l              occ      energy [Ha]    energy [eV]
    1    0           2.0000       -18.944147      -515.4965
    2    0           2.0000        -0.883529       -24.0421
    2    1           4.0000        -0.330176        -8.9845

  Creating fixed part of basis set: Ionic, confined, hydrogenic.
 
  H                    hydrogenic:
 
  List of hydrogenic basis orbitals: 
    n    l      effective z      eigenvalue [eV]  inner max. [A]     outer max. [A]     outer radius [A]   
    2    0         2.100000       -14.9965           0.193241           1.317192           5.372934
    2    1         3.500000       -41.6672           0.602363           0.602363           4.056010
    1    0         0.850000        -9.8292           0.624864           0.624864           5.372934
    2    1         3.700000       -46.5653           0.573616           0.573616           3.909951
    2    0         1.200000        -4.5995           0.334977           2.228160           5.505921
    3    2         7.000000       -74.0753           0.680692           0.680692           3.769152
 
 
  O                    hydrogenic:
 
  List of hydrogenic basis orbitals: 
    n    l      effective z      eigenvalue [eV]  inner max. [A]     outer max. [A]     outer radius [A]   
    2    1         1.800000       -11.0118           1.178546           1.178546           5.432516
    3    2         7.600000       -87.3182           0.624117           0.624117           3.541422
    3    0         6.400000       -61.9209           0.061166           1.081887           4.306510
    4    3        11.600000      -114.4238           0.731621           0.731621           3.584982
    3    1         6.200000       -58.1113           0.255677           1.030255           4.306510
    3    2         5.600000       -47.4081           0.847222           0.847222           4.413102
    5    4        17.600000      -168.5799           0.749730           0.749730           3.372413
    1    0         0.750000        -7.6499           0.705275           0.705275           5.366508
 

  Adding cutoff potential to free-atom effective potential.
  Creating atomic-like basis functions for current effective potential.

  Species H                   :

  List of atomic basis orbitals and eigenvalues:
    n    l      energy [Ha]    energy [eV]    outer radius [A]
    1    0        -0.241374        -6.5681       5.372934


  Species O                   :

  List of atomic basis orbitals and eigenvalues:
    n    l      energy [Ha]    energy [eV]    outer radius [A]
    1    0       -18.944147      -515.4965       1.415745
    2    0        -0.883529       -24.0421       5.048305
    2    1        -0.330173        -8.9845       5.301302

  Assembling full basis from fixed parts.
  | Species H :   atomic orbital   1 s accepted.
  | Species H :    hydro orbital   2 s accepted.
  | Species H :    hydro orbital   1 s accepted.
  | Species H :    hydro orbital   2 s accepted.
  | Species H :    hydro orbital   2 p accepted.
  | Species H :    hydro orbital   2 p accepted.
  | Species H :    hydro orbital   3 d accepted.
  | Species O :   atomic orbital   1 s accepted.
  | Species O :    hydro orbital   3 s accepted.
  | Species O :   atomic orbital   2 s accepted.
  | Species O :    hydro orbital   1 s accepted.
  | Species O :    hydro orbital   3 p accepted.
  | Species O :   atomic orbital   2 p accepted.
  | Species O :    hydro orbital   2 p accepted.
  | Species O :    hydro orbital   3 d accepted.
  | Species O :    hydro orbital   3 d accepted.
  | Species O :    hydro orbital   4 f accepted.
  | Species O :    hydro orbital   5 g accepted.
 
  Basis size parameters after reduction:
  | Total number of radial functions:       18
  | Total number of basis functions :      360
 
  Testing on-site integration grid accuracy.
  |  Species  Function  <phi|h_atom|phi> (log., in eV)  <phi|h_atom|phi> (rad., in eV)
           1        1                 -6.5683835025                 -6.5684759159
           1        2                 13.3711789951                 13.3708738703
           1        3                 23.6590910787                 23.6532055418
           1        4                 16.2963827186                 16.1870710655 ***
           1        5                 28.7627214838                 28.7627215090
           1        6                 59.5965249172                 59.5965950857
           1        7                 60.2220506392                 60.2220503827
           2        8               -515.4964576505               -515.4964530710
           2        9                 15.3030791347                 15.3030722972
           2       10                -21.7296094581                -21.7296135470
           2       11                 14.2969371730                 14.2969701621
           2       12                 21.0679693190                 21.0679697493
           2       13                 -2.3833606469                 -2.3833613176
           2       14                 13.7067136422                 13.7066766629
           2       15                 45.8013116808                 45.8013116965
           2       16                 52.2309815402                 52.2309831494
           2       17                 85.4120732416                 85.4120732763
           2       18                142.1019167745                142.1019167817
 * Note: Onsite integrals marked "***" above are less accurate than
 * onsite_accuracy_threshold =    0.03000 eV. Usually, this is harmless.
 * When in doubt, tighten the "radial" and/or "radial_multiplier" flags to check.

  Preparing densities etc. for the partition functions (integrals / Hartree potential).

  Preparations completed.
  max(cpu_time)          :      0.170 s.
  Wall clock time (cpu1) :      0.502 s.
------------------------------------------------------------

------------------------------------------------------------
          Begin self-consistency loop: Initialization.

          Date     :  20150727, Time     :  120502.850
------------------------------------------------------------

  Initializing index lists of integration centers etc. from given atomic structure:
  | Number of centers in hartree potential         :        16
  | Number of centers in hartree multipole         :        16
  | Number of centers in electron density summation:        16
  | Number of centers in basis integrals           :        16
  | Number of centers in integrals                 :        16
  Partitioning the integration grid into batches with parallel hashing+maxmin method.
  | Number of batches:     2095
  | Maximal batch size:     195
  | Minimal batch size:      49
  | Average batch size:      99.429
  | Standard deviation of batch sizes:      28.101

  Integration load balanced across     8 MPI tasks.
  Work distribution over tasks is as follows:
  Task     0 has      26043 integration points.
  Task     1 has      26072 integration points.
  Task     2 has      26078 integration points.
  Task     3 has      26018 integration points.
  Task     4 has      26040 integration points.
  Task     5 has      26007 integration points.
  Task     6 has      26072 integration points.
  Task     7 has      25974 integration points.
  Initializing partition tables, free-atom densities, potentials, etc. across the integration grid (initialize_grid_storage).
  | Net number of integration points:   208304
  | of which are non-zero points    :   207761
  Obtaining max. number of non-zero basis functions in each batch (get_n_compute_maxes).
  | Maximal number of non-zero basis functions:      357 in task     0
  | Maximal number of non-zero basis functions:      357 in task     1
  | Maximal number of non-zero basis functions:      357 in task     2
  | Maximal number of non-zero basis functions:      356 in task     3
  | Maximal number of non-zero basis functions:      356 in task     4
  | Maximal number of non-zero basis functions:      357 in task     5
  | Maximal number of non-zero basis functions:      357 in task     6
  | Maximal number of non-zero basis functions:      357 in task     7
  Integrating Hamiltonian matrix: batch-based integration.
  Time summed over all CPUs for integration: real work        8.055 s, elapsed        8.284 s
  Integrating overlap matrix.
  Time summed over all CPUs for integration: real work        4.305 s, elapsed        4.429 s

  Updating Kohn-Sham eigenvalues, eigenvectors, occupation numbers, and Fermi level.
  Solving generalized eigenproblem
  Updating Kohn-Sham eigenvalues and eigenfunctions.
  Transforming overlap matrix and checking for singularities.
  Overlap matrix is nonsingular:
  | Lowest eigenvalue:  0.195887E-03
  Solving real generalised eigenvalue problem by standard LAPACK (fast)
  Determining occupation numbers for Kohn-Sham eigenstates.
  | Chemical potential (Fermi level) in eV                 : -.27154826E+01
  | Error in electron count due to remaining E_F inaccuracy: -.10352608E-10
  | Maximum occupation number of highest empty state:  0.00E+00

  Writing Kohn-Sham eigenvalues.

  State    Occupation    Eigenvalue [Ha]    Eigenvalue [eV]
      1       2.00000         -19.065134         -518.78870
      2       2.00000         -19.064862         -518.78128
      3       2.00000         -19.059274         -518.62923
      4       2.00000         -19.050530         -518.39130
      5       2.00000         -19.032248         -517.89380
      6       2.00000          -1.130137          -30.75259
      7       2.00000          -1.116737          -30.38796
      8       2.00000          -1.104115          -30.04449
      9       2.00000          -1.098959          -29.90419
     10       2.00000          -1.063840          -28.94855
     11       2.00000          -0.654995          -17.82333
     12       2.00000          -0.651003          -17.71468
     13       2.00000          -0.640990          -17.44223
     14       2.00000          -0.628637          -17.10609
     15       2.00000          -0.620543          -16.88584
     16       2.00000          -0.602533          -16.39575
     17       2.00000          -0.534626          -14.54790
     18       2.00000          -0.520767          -14.17078
     19       2.00000          -0.508146          -13.82734
     20       2.00000          -0.488556          -13.29428
     21       2.00000          -0.482769          -13.13681
     22       2.00000          -0.452711          -12.31889
     23       2.00000          -0.446562          -12.15158
     24       2.00000          -0.438845          -11.94157
     25       2.00000          -0.424800          -11.55941
     26       1.00000          -0.099792           -2.71548
     27       0.00000          -0.070288           -1.91263
     28       0.00000          -0.067012           -1.82350
     29       0.00000          -0.038986           -1.06086
     30       0.00000          -0.038344           -1.04340
     31       0.00000          -0.015404           -0.41915
     32       0.00000           0.024498            0.66661
     33       0.00000           0.029220            0.79512
     34       0.00000           0.041630            1.13282
     35       0.00000           0.047415            1.29022
     36       0.00000           0.064160            1.74587
     37       0.00000           0.068075            1.85242
     38       0.00000           0.073861            2.00987
     39       0.00000           0.085611            2.32961
     40       0.00000           0.092072            2.50541
     41       0.00000           0.099209            2.69962
     42       0.00000           0.101453            2.76067
     43       0.00000           0.108776            2.95995
     44       0.00000           0.116219            3.16249
     45       0.00000           0.123944            3.37269
     46       0.00000           0.134870            3.66999
     47       0.00000           0.137910            3.75272
     48       0.00000           0.148756            4.04785
     49       0.00000           0.161607            4.39754
     50       0.00000           0.177129            4.81994
     51       0.00000           0.180561            4.91330
     52       0.00000           0.190379            5.18047
     53       0.00000           0.200440            5.45426
     54       0.00000           0.215124            5.85382
     55       0.00000           0.237591            6.46517
     56       0.00000           0.254141            6.91552
     57       0.00000           0.268643            7.31015
     58       0.00000           0.271237            7.38074
     59       0.00000           0.285554            7.77033
     60       0.00000           0.299512            8.15013
     61       0.00000           0.304944            8.29795
     62       0.00000           0.320581            8.72344
     63       0.00000           0.336649            9.16069
     64       0.00000           0.352045            9.57963
     65       0.00000           0.369209           10.04668
     66       0.00000           0.373561           10.16512
     67       0.00000           0.382619           10.41160
     68       0.00000           0.398804           10.85202
     69       0.00000           0.409286           11.13724
     70       0.00000           0.421516           11.47003
     71       0.00000           0.433187           11.78761
     72       0.00000           0.439447           11.95795
     73       0.00000           0.456786           12.42978
     74       0.00000           0.465243           12.65990
     75       0.00000           0.476968           12.97896
     76       0.00000           0.492900           13.41249
     77       0.00000           0.517403           14.07926
     78       0.00000           0.531964           14.47548
     79       0.00000           0.551819           15.01576
     80       0.00000           0.574855           15.64260
     81       0.00000           0.582206           15.84264
     82       0.00000           0.608301           16.55272
     83       0.00000           0.623791           16.97421
     84       0.00000           0.642286           17.47750
     85       0.00000           0.683233           18.59173
     86       0.00000           0.731179           19.89638
     87       0.00000           0.742092           20.19334
     88       0.00000           0.749274           20.38880
     89       0.00000           0.767386           20.88165
     90       0.00000           0.781691           21.27088

  Highest occupied state (VBM) at    -11.55940837 eV
  | Occupation number:      2.00000000

  Lowest unoccupied state (CBM) at    -2.71548256 eV
  | Occupation number:      1.00000000

  Overall HOMO-LUMO gap:      8.84392581 eV.
  Calculating total energy contributions from superposition of free atom densities.

  Total energy components:
  | Sum of eigenvalues            :        -217.86442628 Ha       -5928.39267226 eV
  | XC energy correction          :         -45.97512605 Ha       -1251.04683246 eV
  | XC potential correction       :          58.76464923 Ha        1599.06746530 eV
  | Free-atom electrostatic energy:        -178.46156989 Ha       -4856.18639683 eV
  | Hartree energy correction     :           0.00000000 Ha           0.00000000 eV
  | van der Waals energy corr.    :           0.00000000 Ha           0.00000000 eV
  | Entropy correction            :          -0.00010367 Ha          -0.00282095 eV
  | ---------------------------
  | Total energy                  :        -383.53647299 Ha      -10436.55843626 eV
  | Total energy, T -> 0          :        -383.53657666 Ha      -10436.56125721 eV  <-- do not rely on this value for anything but (periodic) metals
  | Electronic free energy        :        -383.53668032 Ha      -10436.56407816 eV

  Derived energy quantities:
  | Kinetic energy                :         379.93528552 Ha       10338.56513951 eV
  | Electrostatic energy          :        -717.49663246 Ha      -19524.07674330 eV
  | Energy correction for multipole
  | error in Hartree potential    :           0.00000000 Ha           0.00000000 eV
  | Sum of eigenvalues per atom                           :        -370.52454202 eV
  | Total energy (T->0) per atom                          :        -652.28507858 eV  <-- do not rely on this value for anything but (periodic) metals
  | Electronic free energy per atom                       :        -652.28525488 eV
  Initialize hartree_potential_storage
  Max. number of atoms included in rho_multipole:           16

  End scf initialization - timings             :  max(cpu_time)    wall_clock(cpu1)
  | Time for scf. initialization               :        2.191 s           2.191 s
  | Boundary condition initialization          :        0.000 s           0.001 s
  | Integration                                :        1.593 s           1.593 s
  | Solution of K.-S. eqns.                    :        0.213 s           0.213 s
  | Grid partitioning                          :        0.145 s           0.145 s
  | Preloading free-atom quantities on grid    :        0.013 s           0.013 s
  | Free-atom superposition energy             :        0.074 s           0.074 s
  | Total energy evaluation                    :        0.001 s           0.000 s
------------------------------------------------------------

------------------------------------------------------------
          Begin self-consistency iteration #    1

  Date     :  20150727, Time     :  120505.041
------------------------------------------------------------
  Evaluating new KS density.
  Integration grid: deviation in total charge (<rho> - N_e) =  -1.034550E-11
  Pulay mixing of updated and previous charge densities.

  Evaluating partitioned Hartree potential by multipole expansion.
  | Analytical far-field extrapolation by fixed multipoles:
  | Hartree multipole sum: apparent total charge =  -0.104006E-05
  Summing up the Hartree potential.
  Time summed over all CPUs for potential: real work        2.895 s, elapsed        2.912 s
  | RMS charge density error from multipole expansion :   0.168712E-02

  Integrating Hamiltonian matrix: batch-based integration.
  Time summed over all CPUs for integration: real work        8.060 s, elapsed        8.305 s

  Updating Kohn-Sham eigenvalues, eigenvectors, occupation numbers, and Fermi level.
  Solving generalized eigenproblem
  Updating Kohn-Sham eigenvalues and eigenfunctions.
  Solving real generalised eigenvalue problem by standard LAPACK (fast)
  Determining occupation numbers for Kohn-Sham eigenstates.
  | Chemical potential (Fermi level) in eV                 : -.24963484E+01
  | Error in electron count due to remaining E_F inaccuracy: 0.00000000E+00
  | Maximum occupation number of highest empty state:  0.00E+00

  Writing Kohn-Sham eigenvalues.

  State    Occupation    Eigenvalue [Ha]    Eigenvalue [eV]
      1       2.00000         -19.012431         -517.35457
      2       2.00000         -18.995559         -516.89546
      3       2.00000         -18.983442         -516.56574
      4       2.00000         -18.975033         -516.33692
      5       2.00000         -18.953058         -515.73896
      6       2.00000          -1.102889          -30.01114
      7       2.00000          -1.084461          -29.50968
      8       2.00000          -1.068092          -29.06427
      9       2.00000          -1.060761          -28.86479
     10       2.00000          -1.021901          -27.80734
     11       2.00000          -0.623507          -16.96648
     12       2.00000          -0.621767          -16.91915
     13       2.00000          -0.617528          -16.80380
     14       2.00000          -0.598860          -16.29580
     15       2.00000          -0.595229          -16.19700
     16       2.00000          -0.567172          -15.43354
     17       2.00000          -0.503916          -13.71224
     18       2.00000          -0.482791          -13.13740
     19       2.00000          -0.473881          -12.89497
     20       2.00000          -0.456198          -12.41377
     21       2.00000          -0.445312          -12.11756
     22       2.00000          -0.419322          -11.41032
     23       2.00000          -0.407923          -11.10014
     24       2.00000          -0.398390          -10.84075
     25       2.00000          -0.381733          -10.38749
     26       1.00000          -0.091739           -2.49635
     27       0.00000          -0.062666           -1.70524
     28       0.00000          -0.058395           -1.58902
     29       0.00000          -0.033154           -0.90216
     30       0.00000          -0.029591           -0.80522
     31       0.00000          -0.008991           -0.24466
     32       0.00000           0.031897            0.86795
     33       0.00000           0.036554            0.99469
     34       0.00000           0.051799            1.40953
     35       0.00000           0.053873            1.46596
     36       0.00000           0.069704            1.89674
     37       0.00000           0.075914            2.06572
     38       0.00000           0.083571            2.27408
     39       0.00000           0.096100            2.61501
     40       0.00000           0.099150            2.69802
     41       0.00000           0.106831            2.90703
     42       0.00000           0.109711            2.98540
     43       0.00000           0.122159            3.32412
     44       0.00000           0.124259            3.38125
     45       0.00000           0.133073            3.62109
     46       0.00000           0.143272            3.89863
     47       0.00000           0.147128            4.00356
     48       0.00000           0.166417            4.52844
     49       0.00000           0.173800            4.72933
     50       0.00000           0.184745            5.02716
     51       0.00000           0.189598            5.15923
     52       0.00000           0.199301            5.42326
     53       0.00000           0.208205            5.66555
     54       0.00000           0.224171            6.10000
     55       0.00000           0.247955            6.74721
     56       0.00000           0.262066            7.13117
     57       0.00000           0.275343            7.49246
     58       0.00000           0.278512            7.57871
     59       0.00000           0.293319            7.98163
     60       0.00000           0.306058            8.32826
     61       0.00000           0.311961            8.48890
     62       0.00000           0.327514            8.91211
     63       0.00000           0.345377            9.39820
     64       0.00000           0.363854            9.90097
     65       0.00000           0.378081           10.28811
     66       0.00000           0.382404           10.40574
     67       0.00000           0.389140           10.58904
     68       0.00000           0.407744           11.09527
     69       0.00000           0.418294           11.38236
     70       0.00000           0.428830           11.66905
     71       0.00000           0.441314           12.00875
     72       0.00000           0.446354           12.14592
     73       0.00000           0.463646           12.61645
     74       0.00000           0.475143           12.92929
     75       0.00000           0.486713           13.24414
     76       0.00000           0.502472           13.67296
     77       0.00000           0.527519           14.35452
     78       0.00000           0.541787           14.74277
     79       0.00000           0.563819           15.34228
     80       0.00000           0.584358           15.90119
     81       0.00000           0.594624           16.18053
     82       0.00000           0.618376           16.82687
     83       0.00000           0.633372           17.23492
     84       0.00000           0.654828           17.81877
     85       0.00000           0.695424           18.92344
     86       0.00000           0.742699           20.20986
     87       0.00000           0.752160           20.46730
     88       0.00000           0.761188           20.71297
     89       0.00000           0.776832           21.13867
     90       0.00000           0.793612           21.59528

  Highest occupied state (VBM) at     -2.49634838 eV
  | Occupation number:      1.00000000

  Lowest unoccupied state (CBM) at    -2.49634838 eV
  | Occupation number:      1.00000000

  Overall HOMO-LUMO gap:      0.00000000 eV.

  Total energy components:
  | Sum of eigenvalues            :        -215.79405124 Ha       -5872.05490098 eV
  | XC energy correction          :         -46.19409974 Ha       -1257.00540957 eV
  | XC potential correction       :          59.05048813 Ha        1606.84553752 eV
  | Free-atom electrostatic energy:        -178.46156989 Ha       -4856.18639683 eV
  | Hartree energy correction     :          -2.01889116 Ha         -54.93682371 eV
  | van der Waals energy corr.    :           0.00000000 Ha           0.00000000 eV
  | Entropy correction            :          -0.00010367 Ha          -0.00282095 eV
  | ---------------------------
  | Total energy                  :        -383.41812389 Ha      -10433.33799357 eV
  | Total energy, T -> 0          :        -383.41822756 Ha      -10433.34081452 eV  <-- do not rely on this value for anything but (periodic) metals
  | Electronic free energy        :        -383.41833123 Ha      -10433.34363547 eV

  Derived energy quantities:
  | Kinetic energy                :         381.27270562 Ha       10374.95819202 eV
  | Electrostatic energy          :        -718.49672978 Ha      -19551.29077602 eV
  | Energy correction for multipole
  | error in Hartree potential    :           0.00032107 Ha           0.00873675 eV
  | Sum of eigenvalues per atom                           :        -367.00343131 eV
  | Total energy (T->0) per atom                          :        -652.08380091 eV  <-- do not rely on this value for anything but (periodic) metals
  | Electronic free energy per atom                       :        -652.08397722 eV

  Self-consistency convergence accuracy:
  | Change of charge density      : 0.6325E+00
  | Change of sum of eigenvalues  : 0.5634E+02 eV
  | Change of total energy        : 0.3220E+01 eV

  End self-consistency iteration #     1       :  max(cpu_time)    wall_clock(cpu1)
  | Time for this iteration                    :        2.157 s           2.157 s
  | Charge density update                      :        0.685 s           0.685 s
  | Density mixing                             :        0.004 s           0.004 s
  | Hartree multipole update                   :        0.005 s           0.005 s
  | Hartree multipole summation                :        0.365 s           0.365 s
  | Integration                                :        1.040 s           1.040 s
  | Solution of K.-S. eqns.                    :        0.057 s           0.057 s
  | Total energy evaluation                    :        0.001 s           0.001 s
------------------------------------------------------------

------------------------------------------------------------
          Begin self-consistency iteration #    2

  Date     :  20150727, Time     :  120507.198
------------------------------------------------------------
  Evaluating new KS density.
  Integration grid: deviation in total charge (<rho> - N_e) =   5.684342E-14
  Pulay mixing of updated and previous charge densities.

  Evaluating partitioned Hartree potential by multipole expansion.
  | Analytical far-field extrapolation by fixed multipoles:
  | Hartree multipole sum: apparent total charge =  -0.341511E-05
  Summing up the Hartree potential.
  Time summed over all CPUs for potential: real work        2.895 s, elapsed        2.912 s
  | RMS charge density error from multipole expansion :   0.690194E-02

  Integrating Hamiltonian matrix: batch-based integration.
  Time summed over all CPUs for integration: real work        8.026 s, elapsed        8.267 s

  Updating Kohn-Sham eigenvalues, eigenvectors, occupation numbers, and Fermi level.
  Solving generalized eigenproblem
  Updating Kohn-Sham eigenvalues and eigenfunctions.
  Solving real generalised eigenvalue problem by standard LAPACK (fast)
  Determining occupation numbers for Kohn-Sham eigenstates.
  | Chemical potential (Fermi level) in eV                 : -.19893763E+01
  | Error in electron count due to remaining E_F inaccuracy: 0.17053026E-12
  | Maximum occupation number of highest empty state:  0.00E+00

  Highest occupied state (VBM) at     -1.98937631 eV
  | Occupation number:      1.00000000

  Lowest unoccupied state (CBM) at    -1.21290401 eV
  | Occupation number:      0.00000000

  Overall HOMO-LUMO gap:      0.77647230 eV.

  Total energy components:
  | Sum of eigenvalues            :        -210.75453500 Ha       -5734.92268702 eV
  | XC energy correction          :         -46.75388121 Ha       -1272.23783839 eV
  | XC potential correction       :          59.77965153 Ha        1626.68708310 eV
  | Free-atom electrostatic energy:        -178.46156989 Ha       -4856.18639683 eV
  | Hartree energy correction     :          -7.09328649 Ha        -193.01814595 eV
  | van der Waals energy corr.    :           0.00000000 Ha           0.00000000 eV
  | Entropy correction            :          -0.00010367 Ha          -0.00282095 eV
  | ---------------------------
  | Total energy                  :        -383.28362106 Ha      -10429.67798509 eV
  | Total energy, T -> 0          :        -383.28372472 Ha      -10429.68080603 eV  <-- do not rely on this value for anything but (periodic) metals
  | Electronic free energy        :        -383.28382839 Ha      -10429.68362698 eV

  Derived energy quantities:
  | Kinetic energy                :         384.10120746 Ha       10451.92564301 eV
  | Electrostatic energy          :        -720.63094730 Ha      -19609.36578970 eV
  | Energy correction for multipole
  | error in Hartree potential    :           0.00032239 Ha           0.00877260 eV
  | Sum of eigenvalues per atom                           :        -358.43266794 eV
  | Total energy (T->0) per atom                          :        -651.85505038 eV  <-- do not rely on this value for anything but (periodic) metals
  | Electronic free energy per atom                       :        -651.85522669 eV

  Self-consistency convergence accuracy:
  | Change of charge density      : 0.4813E+00
  | Change of sum of eigenvalues  : 0.1371E+03 eV
  | Change of total energy        : 0.3660E+01 eV

  End self-consistency iteration #     2       :  max(cpu_time)    wall_clock(cpu1)
  | Time for this iteration                    :        2.150 s           2.149 s
  | Charge density update                      :        0.681 s           0.681 s
  | Density mixing                             :        0.006 s           0.006 s
  | Hartree multipole update                   :        0.005 s           0.005 s
  | Hartree multipole summation                :        0.365 s           0.364 s
  | Integration                                :        1.035 s           1.035 s
  | Solution of K.-S. eqns.                    :        0.057 s           0.057 s
  | Total energy evaluation                    :        0.001 s           0.000 s
------------------------------------------------------------

------------------------------------------------------------
          Begin self-consistency iteration #    3

  Date     :  20150727, Time     :  120509.347
------------------------------------------------------------
  Evaluating new KS density.
  Integration grid: deviation in total charge (<rho> - N_e) =   1.634248E-13
  Pulay mixing of updated and previous charge densities.

  Evaluating partitioned Hartree potential by multipole expansion.
  | Analytical far-field extrapolation by fixed multipoles:
  | Hartree multipole sum: apparent total charge =  -0.301169E-05
  Summing up the Hartree potential.
  Time summed over all CPUs for potential: real work        2.895 s, elapsed        2.912 s
  | RMS charge density error from multipole expansion :   0.140800E-01

  Integrating Hamiltonian matrix: batch-based integration.
  Time summed over all CPUs for integration: real work        8.029 s, elapsed        8.287 s

  Updating Kohn-Sham eigenvalues, eigenvectors, occupation numbers, and Fermi level.
  Solving generalized eigenproblem
  Updating Kohn-Sham eigenvalues and eigenfunctions.
  Solving real generalised eigenvalue problem by standard LAPACK (fast)
  Determining occupation numbers for Kohn-Sham eigenstates.
  | Chemical potential (Fermi level) in eV                 : -.19127249E+01
  | Error in electron count due to remaining E_F inaccuracy: 0.34715555E-08
  | Maximum occupation number of highest empty state:  0.00E+00

  Highest occupied state (VBM) at     -1.91272489 eV
  | Occupation number:      1.00000000

  Lowest unoccupied state (CBM) at    -1.16298787 eV
  | Occupation number:      0.00000000

  Overall HOMO-LUMO gap:      0.74973702 eV.

  Total energy components:
  | Sum of eigenvalues            :        -210.99789687 Ha       -5741.54490046 eV
  | XC energy correction          :         -46.75262344 Ha       -1272.20361294 eV
  | XC potential correction       :          59.76961566 Ha        1626.41399325 eV
  | Free-atom electrostatic energy:        -178.46156989 Ha       -4856.18639683 eV
  | Hartree energy correction     :          -6.84025409 Ha        -186.13278401 eV
  | van der Waals energy corr.    :           0.00000000 Ha           0.00000000 eV
  | Entropy correction            :          -0.00010367 Ha          -0.00282095 eV
  | ---------------------------
  | Total energy                  :        -383.28272863 Ha      -10429.65370099 eV
  | Total energy, T -> 0          :        -383.28283230 Ha      -10429.65652194 eV  <-- do not rely on this value for anything but (periodic) metals
  | Electronic free energy        :        -383.28293597 Ha      -10429.65934289 eV

  Derived energy quantities:
  | Kinetic energy                :         382.33124638 Ha       10403.76255150 eV
  | Electrostatic energy          :        -718.86135156 Ha      -19561.21263955 eV
  | Energy correction for multipole
  | error in Hartree potential    :          -0.00448293 Ha          -0.12198666 eV
  | Sum of eigenvalues per atom                           :        -358.84655628 eV
  | Total energy (T->0) per atom                          :        -651.85353262 eV  <-- do not rely on this value for anything but (periodic) metals
  | Electronic free energy per atom                       :        -651.85370893 eV

  Self-consistency convergence accuracy:
  | Change of charge density      : 0.2317E+00
  | Change of sum of eigenvalues  : -.6622E+01 eV
  | Change of total energy        : 0.2428E-01 eV

  End self-consistency iteration #     3       :  max(cpu_time)    wall_clock(cpu1)
  | Time for this iteration                    :        2.148 s           2.148 s
  | Charge density update                      :        0.676 s           0.676 s
  | Density mixing                             :        0.007 s           0.007 s
  | Hartree multipole update                   :        0.005 s           0.005 s
  | Hartree multipole summation                :        0.365 s           0.365 s
  | Integration                                :        1.038 s           1.038 s
  | Solution of K.-S. eqns.                    :        0.056 s           0.056 s
  | Total energy evaluation                    :        0.000 s           0.000 s
------------------------------------------------------------

------------------------------------------------------------
          Begin self-consistency iteration #    4

  Date     :  20150727, Time     :  120511.495
------------------------------------------------------------
  Evaluating new KS density.
  Integration grid: deviation in total charge (<rho> - N_e) =   3.471541E-09
  Pulay mixing of updated and previous charge densities.

  Evaluating partitioned Hartree potential by multipole expansion.
  | Analytical far-field extrapolation by fixed multipoles:
  | Hartree multipole sum: apparent total charge =  -0.341831E-05
  Summing up the Hartree potential.
  Time summed over all CPUs for potential: real work        2.894 s, elapsed        2.911 s
  | RMS charge density error from multipole expansion :   0.173964E-01

  Integrating Hamiltonian matrix: batch-based integration.
  Time summed over all CPUs for integration: real work        8.021 s, elapsed        8.256 s

  Updating Kohn-Sham eigenvalues, eigenvectors, occupation numbers, and Fermi level.
  Solving generalized eigenproblem
  Updating Kohn-Sham eigenvalues and eigenfunctions.
  Solving real generalised eigenvalue problem by standard LAPACK (fast)
  Determining occupation numbers for Kohn-Sham eigenstates.
  | Chemical potential (Fermi level) in eV                 : -.18057921E+01
  | Error in electron count due to remaining E_F inaccuracy: 0.37033487E-09
  | Maximum occupation number of highest empty state:  0.00E+00

  Highest occupied state (VBM) at     -1.80579206 eV
  | Occupation number:      1.00000000

  Lowest unoccupied state (CBM) at    -1.05525788 eV
  | Occupation number:      0.00000000

  Overall HOMO-LUMO gap:      0.75053418 eV.

  Total energy components:
  | Sum of eigenvalues            :        -209.95265464 Ha       -5713.10241223 eV
  | XC energy correction          :         -46.89083312 Ha       -1275.96448943 eV
  | XC potential correction       :          59.94744015 Ha        1631.25284372 eV
  | Free-atom electrostatic energy:        -178.46156989 Ha       -4856.18639683 eV
  | Hartree energy correction     :          -7.92046362 Ha        -215.52678086 eV
  | van der Waals energy corr.    :           0.00000000 Ha           0.00000000 eV
  | Entropy correction            :          -0.00010367 Ha          -0.00282095 eV
  | ---------------------------
  | Total energy                  :        -383.27808111 Ha      -10429.52723563 eV
  | Total energy, T -> 0          :        -383.27818478 Ha      -10429.53005657 eV  <-- do not rely on this value for anything but (periodic) metals
  | Electronic free energy        :        -383.27828845 Ha      -10429.53287752 eV

  Derived energy quantities:
  | Kinetic energy                :         382.42011519 Ha       10406.18079506 eV
  | Electrostatic energy          :        -718.80736319 Ha      -19559.74354126 eV
  | Energy correction for multipole
  | error in Hartree potential    :          -0.00602407 Ha          -0.16392331 eV
  | Sum of eigenvalues per atom                           :        -357.06890076 eV
  | Total energy (T->0) per atom                          :        -651.84562854 eV  <-- do not rely on this value for anything but (periodic) metals
  | Electronic free energy per atom                       :        -651.84580485 eV

  Self-consistency convergence accuracy:
  | Change of charge density      : 0.1038E+00
  | Change of sum of eigenvalues  : 0.2844E+02 eV
  | Change of total energy        : 0.1265E+00 eV

  End self-consistency iteration #     4       :  max(cpu_time)    wall_clock(cpu1)
  | Time for this iteration                    :        2.146 s           2.146 s
  | Charge density update                      :        0.676 s           0.676 s
  | Density mixing                             :        0.009 s           0.009 s
  | Hartree multipole update                   :        0.005 s           0.005 s
  | Hartree multipole summation                :        0.365 s           0.364 s
  | Integration                                :        1.033 s           1.034 s
  | Solution of K.-S. eqns.                    :        0.057 s           0.057 s
  | Total energy evaluation                    :        0.000 s           0.001 s
------------------------------------------------------------

------------------------------------------------------------
          Begin self-consistency iteration #    5

  Date     :  20150727, Time     :  120513.641
------------------------------------------------------------
  Evaluating new KS density.
  Integration grid: deviation in total charge (<rho> - N_e) =   3.703207E-10
  Pulay mixing of updated and previous charge densities.

  Evaluating partitioned Hartree potential by multipole expansion.
  | Analytical far-field extrapolation by fixed multipoles:
  | Hartree multipole sum: apparent total charge =  -0.345132E-05
  Summing up the Hartree potential.
  Time summed over all CPUs for potential: real work        2.894 s, elapsed        2.910 s
  | RMS charge density error from multipole expansion :   0.179808E-01

  Integrating Hamiltonian matrix: batch-based integration.
  Time summed over all CPUs for integration: real work        8.023 s, elapsed        8.256 s

  Updating Kohn-Sham eigenvalues, eigenvectors, occupation numbers, and Fermi level.
  Solving generalized eigenproblem
  Updating Kohn-Sham eigenvalues and eigenfunctions.
  Solving real generalised eigenvalue problem by standard LAPACK (fast)
  Determining occupation numbers for Kohn-Sham eigenstates.
  | Chemical potential (Fermi level) in eV                 : -.18220819E+01
  | Error in electron count due to remaining E_F inaccuracy: 0.00000000E+00
  | Maximum occupation number of highest empty state:  0.00E+00

  Highest occupied state (VBM) at     -1.82208186 eV
  | Occupation number:      1.00000000

  Lowest unoccupied state (CBM) at    -1.82208186 eV
  | Occupation number:      1.00000000

  Overall HOMO-LUMO gap:      0.00000000 eV.

  Total energy components:
  | Sum of eigenvalues            :        -209.91728760 Ha       -5712.14002611 eV
  | XC energy correction          :         -46.89931717 Ha       -1276.19535229 eV
  | XC potential correction       :          59.95781257 Ha        1631.53509168 eV
  | Free-atom electrostatic energy:        -178.46156989 Ha       -4856.18639683 eV
  | Hartree energy correction     :          -7.95750561 Ha        -216.53474478 eV
  | van der Waals energy corr.    :           0.00000000 Ha           0.00000000 eV
  | Entropy correction            :          -0.00010367 Ha          -0.00282095 eV
  | ---------------------------
  | Total energy                  :        -383.27786770 Ha      -10429.52142833 eV
  | Total energy, T -> 0          :        -383.27797137 Ha      -10429.52424928 eV  <-- do not rely on this value for anything but (periodic) metals
  | Electronic free energy        :        -383.27807504 Ha      -10429.52707023 eV

  Derived energy quantities:
  | Kinetic energy                :         382.39775798 Ha       10405.57242421 eV
  | Electrostatic energy          :        -718.77630851 Ha      -19558.89850024 eV
  | Energy correction for multipole
  | error in Hartree potential    :          -0.00656004 Ha          -0.17850777 eV
  | Sum of eigenvalues per atom                           :        -357.00875163 eV
  | Total energy (T->0) per atom                          :        -651.84526558 eV  <-- do not rely on this value for anything but (periodic) metals
  | Electronic free energy per atom                       :        -651.84544189 eV

  Self-consistency convergence accuracy:
  | Change of charge density      : 0.2936E-01
  | Change of sum of eigenvalues  : 0.9624E+00 eV
  | Change of total energy        : 0.5807E-02 eV

  End self-consistency iteration #     5       :  max(cpu_time)    wall_clock(cpu1)
  | Time for this iteration                    :        2.148 s           2.147 s
  | Charge density update                      :        0.677 s           0.677 s
  | Density mixing                             :        0.010 s           0.010 s
  | Hartree multipole update                   :        0.005 s           0.005 s
  | Hartree multipole summation                :        0.365 s           0.364 s
  | Integration                                :        1.034 s           1.034 s
  | Solution of K.-S. eqns.                    :        0.057 s           0.057 s
  | Total energy evaluation                    :        0.000 s           0.000 s
------------------------------------------------------------

------------------------------------------------------------
          Begin self-consistency iteration #    6

  Date     :  20150727, Time     :  120515.788
------------------------------------------------------------
  Evaluating new KS density.
  Integration grid: deviation in total charge (<rho> - N_e) =   1.421085E-14
  Pulay mixing of updated and previous charge densities.

  Evaluating partitioned Hartree potential by multipole expansion.
  | Analytical far-field extrapolation by fixed multipoles:
  | Hartree multipole sum: apparent total charge =  -0.347046E-05
  Summing up the Hartree potential.
  Time summed over all CPUs for potential: real work        2.894 s, elapsed        2.910 s
  | RMS charge density error from multipole expansion :   0.183191E-01

  Integrating Hamiltonian matrix: batch-based integration.
  Time summed over all CPUs for integration: real work        8.017 s, elapsed        8.256 s

  Updating Kohn-Sham eigenvalues, eigenvectors, occupation numbers, and Fermi level.
  Solving generalized eigenproblem
  Updating Kohn-Sham eigenvalues and eigenfunctions.
  Solving real generalised eigenvalue problem by standard LAPACK (fast)
  Determining occupation numbers for Kohn-Sham eigenstates.
  | Chemical potential (Fermi level) in eV                 : -.18257794E+01
  | Error in electron count due to remaining E_F inaccuracy: -.11560530E-09
  | Maximum occupation number of highest empty state:  0.00E+00

  Highest occupied state (VBM) at     -6.74979099 eV
  | Occupation number:      2.00000000

  Lowest unoccupied state (CBM) at    -1.82577936 eV
  | Occupation number:      1.00000000

  Overall HOMO-LUMO gap:      4.92401163 eV.

  Total energy components:
  | Sum of eigenvalues            :        -209.89926487 Ha       -5711.64960252 eV
  | XC energy correction          :         -46.90414728 Ha       -1276.32678627 eV
  | XC potential correction       :          59.96374529 Ha        1631.69652910 eV
  | Free-atom electrostatic energy:        -178.46156989 Ha       -4856.18639683 eV
  | Hartree energy correction     :          -7.97667802 Ha        -217.05645260 eV
  | van der Waals energy corr.    :           0.00000000 Ha           0.00000000 eV
  | Entropy correction            :          -0.00010367 Ha          -0.00282095 eV
  | ---------------------------
  | Total energy                  :        -383.27791477 Ha      -10429.52270911 eV
  | Total energy, T -> 0          :        -383.27801844 Ha      -10429.52553006 eV  <-- do not rely on this value for anything but (periodic) metals
  | Electronic free energy        :        -383.27812210 Ha      -10429.52835101 eV

  Derived energy quantities:
  | Kinetic energy                :         382.38298558 Ha       10405.17044683 eV
  | Electrostatic energy          :        -718.75675307 Ha      -19558.36636968 eV
  | Energy correction for multipole
  | error in Hartree potential    :          -0.00685864 Ha          -0.18663319 eV
  | Sum of eigenvalues per atom                           :        -356.97810016 eV
  | Total energy (T->0) per atom                          :        -651.84534563 eV  <-- do not rely on this value for anything but (periodic) metals
  | Electronic free energy per atom                       :        -651.84552194 eV

  Self-consistency convergence accuracy:
  | Change of charge density      : 0.8000E-02
  | Change of sum of eigenvalues  : 0.4904E+00 eV
  | Change of total energy        : -.1281E-02 eV

  End self-consistency iteration #     6       :  max(cpu_time)    wall_clock(cpu1)
  | Time for this iteration                    :        2.149 s           2.148 s
  | Charge density update                      :        0.676 s           0.676 s
  | Density mixing                             :        0.012 s           0.012 s
  | Hartree multipole update                   :        0.005 s           0.005 s
  | Hartree multipole summation                :        0.364 s           0.364 s
  | Integration                                :        1.034 s           1.034 s
  | Solution of K.-S. eqns.                    :        0.057 s           0.057 s
  | Total energy evaluation                    :        0.001 s           0.000 s
------------------------------------------------------------

------------------------------------------------------------
          Begin self-consistency iteration #    7

  Date     :  20150727, Time     :  120517.937
------------------------------------------------------------
  Evaluating new KS density.
  Integration grid: deviation in total charge (<rho> - N_e) =  -1.155982E-10
  Pulay mixing of updated and previous charge densities.

  Evaluating partitioned Hartree potential by multipole expansion.
  | Analytical far-field extrapolation by fixed multipoles:
  | Hartree multipole sum: apparent total charge =  -0.344456E-05
  Summing up the Hartree potential.
  Time summed over all CPUs for potential: real work        2.894 s, elapsed        2.911 s
  | RMS charge density error from multipole expansion :   0.182792E-01

  Integrating Hamiltonian matrix: batch-based integration.
  Time summed over all CPUs for integration: real work        8.021 s, elapsed        8.254 s

  Updating Kohn-Sham eigenvalues, eigenvectors, occupation numbers, and Fermi level.
  Solving generalized eigenproblem
  Updating Kohn-Sham eigenvalues and eigenfunctions.
  Solving real generalised eigenvalue problem by standard LAPACK (fast)
  Determining occupation numbers for Kohn-Sham eigenstates.
  | Chemical potential (Fermi level) in eV                 : -.18413222E+01
  | Error in electron count due to remaining E_F inaccuracy: 0.38369308E-12
  | Maximum occupation number of highest empty state:  0.00E+00

  Highest occupied state (VBM) at     -1.84132215 eV
  | Occupation number:      1.00000000

  Lowest unoccupied state (CBM) at    -1.07045858 eV
  | Occupation number:      0.00000000

  Overall HOMO-LUMO gap:      0.77086358 eV.

  Total energy components:
  | Sum of eigenvalues            :        -209.97522135 Ha       -5713.71648374 eV
  | XC energy correction          :         -46.89612961 Ha       -1276.10861444 eV
  | XC potential correction       :          59.95314732 Ha        1631.40814382 eV
  | Free-atom electrostatic energy:        -178.46156989 Ha       -4856.18639683 eV
  | Hartree energy correction     :          -7.89810291 Ha        -214.91831502 eV
  | van der Waals energy corr.    :           0.00000000 Ha           0.00000000 eV
  | Entropy correction            :          -0.00010367 Ha          -0.00282095 eV
  | ---------------------------
  | Total energy                  :        -383.27787644 Ha      -10429.52166621 eV
  | Total energy, T -> 0          :        -383.27798011 Ha      -10429.52448716 eV  <-- do not rely on this value for anything but (periodic) metals
  | Electronic free energy        :        -383.27808378 Ha      -10429.52730810 eV

  Derived energy quantities:
  | Kinetic energy                :         382.40821252 Ha       10405.85690690 eV
  | Electrostatic energy          :        -718.78995935 Ha      -19559.26995867 eV
  | Energy correction for multipole
  | error in Hartree potential    :          -0.00701655 Ha          -0.19093015 eV
  | Sum of eigenvalues per atom                           :        -357.10728023 eV
  | Total energy (T->0) per atom                          :        -651.84528045 eV  <-- do not rely on this value for anything but (periodic) metals
  | Electronic free energy per atom                       :        -651.84545676 eV

  Self-consistency convergence accuracy:
  | Change of charge density      : 0.7177E-02
  | Change of sum of eigenvalues  : -.2067E+01 eV
  | Change of total energy        : 0.1043E-02 eV

  End self-consistency iteration #     7       :  max(cpu_time)    wall_clock(cpu1)
  | Time for this iteration                    :        2.150 s           2.149 s
  | Charge density update                      :        0.676 s           0.676 s
  | Density mixing                             :        0.013 s           0.013 s
  | Hartree multipole update                   :        0.005 s           0.005 s
  | Hartree multipole summation                :        0.365 s           0.364 s
  | Integration                                :        1.033 s           1.034 s
  | Solution of K.-S. eqns.                    :        0.057 s           0.057 s
  | Total energy evaluation                    :        0.000 s           0.000 s
------------------------------------------------------------

------------------------------------------------------------
          Begin self-consistency iteration #    8

  Date     :  20150727, Time     :  120520.087
------------------------------------------------------------
  Evaluating new KS density.
  Integration grid: deviation in total charge (<rho> - N_e) =   3.694822E-13
  Pulay mixing of updated and previous charge densities.

  Evaluating partitioned Hartree potential by multipole expansion.
  | Analytical far-field extrapolation by fixed multipoles:
  | Hartree multipole sum: apparent total charge =  -0.341476E-05
  Summing up the Hartree potential.
  Time summed over all CPUs for potential: real work        2.894 s, elapsed        2.911 s
  | RMS charge density error from multipole expansion :   0.182943E-01

  Integrating Hamiltonian matrix: batch-based integration.
  Time summed over all CPUs for integration: real work        8.037 s, elapsed        8.257 s

  Updating Kohn-Sham eigenvalues, eigenvectors, occupation numbers, and Fermi level.
  Solving generalized eigenproblem
  Updating Kohn-Sham eigenvalues and eigenfunctions.
  Solving real generalised eigenvalue problem by standard LAPACK (fast)
  Determining occupation numbers for Kohn-Sham eigenstates.
  | Chemical potential (Fermi level) in eV                 : -.18475297E+01
  | Error in electron count due to remaining E_F inaccuracy: 0.47550230E-09
  | Maximum occupation number of highest empty state:  0.00E+00

  Highest occupied state (VBM) at     -1.84752974 eV
  | Occupation number:      1.00000000

  Lowest unoccupied state (CBM) at    -1.07582961 eV
  | Occupation number:      0.00000000

  Overall HOMO-LUMO gap:      0.77170013 eV.

  Total energy components:
  | Sum of eigenvalues            :        -210.00673971 Ha       -5714.57414188 eV
  | XC energy correction          :         -46.89361882 Ha       -1276.04029235 eV
  | XC potential correction       :          59.94979100 Ha        1631.31681353 eV
  | Free-atom electrostatic energy:        -178.46156989 Ha       -4856.18639683 eV
  | Hartree energy correction     :          -7.86573351 Ha        -214.03749903 eV
  | van der Waals energy corr.    :           0.00000000 Ha           0.00000000 eV
  | Entropy correction            :          -0.00010367 Ha          -0.00282095 eV
  | ---------------------------
  | Total energy                  :        -383.27787094 Ha      -10429.52151656 eV
  | Total energy, T -> 0          :        -383.27797461 Ha      -10429.52433751 eV  <-- do not rely on this value for anything but (periodic) metals
  | Electronic free energy        :        -383.27807828 Ha      -10429.52715846 eV

  Derived energy quantities:
  | Kinetic energy                :         382.42137605 Ha       10406.21510485 eV
  | Electrostatic energy          :        -718.80562818 Ha      -19559.69632906 eV
  | Energy correction for multipole
  | error in Hartree potential    :          -0.00712074 Ha          -0.19376528 eV
  | Sum of eigenvalues per atom                           :        -357.16088387 eV
  | Total energy (T->0) per atom                          :        -651.84527109 eV  <-- do not rely on this value for anything but (periodic) metals
  | Electronic free energy per atom                       :        -651.84544740 eV

  Self-consistency convergence accuracy:
  | Change of charge density      : 0.2723E-02
  | Change of sum of eigenvalues  : -.8577E+00 eV
  | Change of total energy        : 0.1496E-03 eV

  End self-consistency iteration #     8       :  max(cpu_time)    wall_clock(cpu1)
  | Time for this iteration                    :        2.151 s           2.150 s
  | Charge density update                      :        0.676 s           0.675 s
  | Density mixing                             :        0.014 s           0.014 s
  | Hartree multipole update                   :        0.005 s           0.005 s
  | Hartree multipole summation                :        0.365 s           0.365 s
  | Integration                                :        1.033 s           1.034 s
  | Solution of K.-S. eqns.                    :        0.057 s           0.057 s
  | Total energy evaluation                    :        0.000 s           0.000 s
------------------------------------------------------------

------------------------------------------------------------
          Begin self-consistency iteration #    9

  Date     :  20150727, Time     :  120522.237
------------------------------------------------------------
  Evaluating new KS density.
  Integration grid: deviation in total charge (<rho> - N_e) =   4.755094E-10
  Pulay mixing of updated and previous charge densities.

  Evaluating partitioned Hartree potential by multipole expansion.
  | Analytical far-field extrapolation by fixed multipoles:
  | Hartree multipole sum: apparent total charge =  -0.340808E-05
  Summing up the Hartree potential.
  Time summed over all CPUs for potential: real work        2.894 s, elapsed        2.910 s
  | RMS charge density error from multipole expansion :   0.182967E-01

  Integrating Hamiltonian matrix: batch-based integration.
  Time summed over all CPUs for integration: real work        8.035 s, elapsed        8.257 s

  Updating Kohn-Sham eigenvalues, eigenvectors, occupation numbers, and Fermi level.
  Solving generalized eigenproblem
  Updating Kohn-Sham eigenvalues and eigenfunctions.
  Solving real generalised eigenvalue problem by standard LAPACK (fast)
  Determining occupation numbers for Kohn-Sham eigenstates.
  | Chemical potential (Fermi level) in eV                 : -.18492152E+01
  | Error in electron count due to remaining E_F inaccuracy: 0.42888360E-09
  | Maximum occupation number of highest empty state:  0.00E+00

  Highest occupied state (VBM) at     -1.84921524 eV
  | Occupation number:      1.00000000

  Lowest unoccupied state (CBM) at    -1.07695621 eV
  | Occupation number:      0.00000000

  Overall HOMO-LUMO gap:      0.77225902 eV.

  Total energy components:
  | Sum of eigenvalues            :        -210.01272851 Ha       -5714.73710537 eV
  | XC energy correction          :         -46.89333555 Ha       -1276.03258420 eV
  | XC potential correction       :          59.94940928 Ha        1631.30642656 eV
  | Free-atom electrostatic energy:        -178.46156989 Ha       -4856.18639683 eV
  | Hartree energy correction     :          -7.85964584 Ha        -213.87184489 eV
[...]
   Van der Waals               : 0.877922E-03 0.461048E-02 0.100766E-03
   ----------------------------------------------------------------
   Total forces(   7)            : 0.461148E+00 0.563306E+00 0.112592E+00
  atom #    8
   Hellmann-Feynman + Multipole  : -.648405E+01 -.647323E+01 0.916416E+01
   Pulay + GGA                   : 0.687238E+01 0.554211E+01 -.616197E+01
   Van der Waals               : -.281373E-02 0.463909E-02 0.489434E-02
   ----------------------------------------------------------------
   Total forces(   8)            : 0.385508E+00 -.926481E+00 0.300708E+01
  atom #    9
   Hellmann-Feynman + Multipole  : -.276240E-02 0.127758E+00 -.149877E-01
   Pulay + GGA                   : 0.918651E-01 0.133032E+00 0.573474E-01
   Van der Waals               : -.124582E-02 0.336500E-02 0.198681E-02
   ----------------------------------------------------------------
   Total forces(   9)            : 0.878569E-01 0.264155E+00 0.443465E-01
  atom #   10
   Hellmann-Feynman + Multipole  : -.308640E+00 0.436966E+00 -.278795E+01
   Pulay + GGA                   : -.344384E-01 0.218407E-01 -.138760E+00
   Van der Waals               : -.190552E-02 0.283825E-02 0.141287E-02
   ----------------------------------------------------------------
   Total forces(  10)            : -.344984E+00 0.461645E+00 -.292529E+01
  atom #   11
   Hellmann-Feynman + Multipole  : 0.704780E+01 -.392574E+01 -.874653E+01
   Pulay + GGA                   : -.744890E+01 0.431850E+01 0.108121E+02
   Van der Waals               : 0.319952E-02 -.441682E-02 -.524442E-02
   ----------------------------------------------------------------
   Total forces(  11)            : -.397901E+00 0.388342E+00 0.206037E+01
  atom #   12
   Hellmann-Feynman + Multipole  : -.286891E+00 0.232715E+00 -.218859E+01
   Pulay + GGA                   : 0.158266E-01 0.349829E-02 0.124587E+00
   Van der Waals               : -.824830E-03 -.331218E-03 -.212740E-02
   ----------------------------------------------------------------
   Total forces(  12)            : -.271890E+00 0.235883E+00 -.206613E+01
  atom #   13
   Hellmann-Feynman + Multipole  : 0.102662E+01 -.105761E+01 0.228576E+00
   Pulay + GGA                   : -.506113E-01 0.678910E-01 0.419376E-02
   Van der Waals               : -.659098E-04 -.943726E-03 -.448116E-02
   ----------------------------------------------------------------
   Total forces(  13)            : 0.975940E+00 -.990666E+00 0.228289E+00
  atom #   14
   Hellmann-Feynman + Multipole  : -.148790E+01 -.126675E+02 -.760395E+00
   Pulay + GGA                   : 0.231414E+01 0.127233E+02 -.832537E+00
   Van der Waals               : -.446724E-03 -.526405E-02 -.524253E-02
   ----------------------------------------------------------------
   Total forces(  14)            : 0.825792E+00 0.504980E-01 -.159817E+01
  atom #   15
   Hellmann-Feynman + Multipole  : -.372562E+00 0.695383E+00 0.420083E+00
   Pulay + GGA                   : -.869092E-01 0.918201E-01 0.816993E-01
   Van der Waals               : 0.747172E-03 -.184862E-02 -.161464E-02
   ----------------------------------------------------------------
   Total forces(  15)            : -.458724E+00 0.785354E+00 0.500168E+00
  atom #   16
   Hellmann-Feynman + Multipole  : -.718764E+00 -.629967E+00 0.104293E+01
   Pulay + GGA                   : 0.719343E-01 0.757952E-01 -.133609E+00
   Van der Waals               : 0.339216E-03 -.445770E-02 -.181309E-02
   ----------------------------------------------------------------
   Total forces(  16)            : -.646490E+00 -.558629E+00 0.907503E+00
  Timings for vdw_correction_hirshfeld (Tkatchenko-Scheffler 2009):
  | CPU time:        5.706 s, Wall clock time:        5.706 s.
  Removing unitary transformations (pure translations, rotations) from forces on atoms.
  Atomic forces before filtering:
  | Net force on center of mass :  0.103871E-01 -.944257E-04 0.534983E-02 eV/A
  | Net torque on center of mass:  0.427656E-02 -.127451E-01 -.146017E-02 eV
  Atomic forces after filtering:
  | Net force on center of mass :  -.624421E-15 0.000000E+00 -.535218E-15 eV/A
  | Net torque on center of mass:  0.453161E-14 0.141613E-14 -.944085E-15 eV
 
  Energy and forces in a compact form:
  | Total energy uncorrected      :         -0.104296026094289E+05 eV
  | Total energy corrected        :         -0.104296054303768E+05 eV  <-- do not rely on this value for anything but (periodic) metals
  | Electronic free energy        :         -0.104296082513248E+05 eV
  Total atomic forces (unitary forces cleaned) [eV/Ang]:
  |   1          0.587589376076471E+00          0.126528670448631E+01         -0.149115465485503E+01
  |   2          0.212628781352593E+00         -0.507588613290260E+00          0.105607055003507E+00
  |   3         -0.766861498674962E+00         -0.273345286860860E+00          0.264850199031330E-01
  |   4         -0.723963410128127E-01         -0.198835437759707E+00          0.123090710698318E+01
  |   5         -0.770081886092260E+00         -0.235483457457470E+01         -0.155852036924507E+01
  |   6          0.199093729129560E+00          0.179579246637652E+01          0.141919506551756E+01
  |   7          0.460869056834338E+00          0.563340217310095E+00          0.112560047057322E+00
  |   8          0.384327165457482E+00         -0.926667017392076E+00          0.300684352731019E+01
  |   9          0.867020342148966E-01          0.264019010656020E+00          0.439619038742289E-01
  |  10         -0.346359202469848E+00          0.461393344908381E+00         -0.292551324522244E+01
  |  11         -0.398143591938028E+00          0.388530158577469E+00          0.205983516635602E+01
  |  12         -0.271919816906231E+00          0.236142258489921E+00         -0.206668618742393E+01
  |  13          0.975625373524569E+00         -0.990530158621915E+00          0.227861254475580E+00
  |  14          0.825284238796165E+00          0.505286382504890E-01         -0.159844215824700E+01
  |  15         -0.459174049907472E+00          0.785388200533918E+00          0.499951577129240E+00
  |  16         -0.647183368384461E+00         -0.558619911089601E+00          0.907108891383508E+00
 
  ------------------------------------ 
  Start decomposition of the XC Energy 
  ------------------------------------ 
  Hartree-Fock part   :          0.000000000 Ha              0.000000000 eV
  ------------------------------------ 
  X Energy            :        -45.229889139 Ha          -1230.767904267 eV
  C Energy GGA        :         -1.663647747 Ha            -45.270158503 eV
  Total XC Energy     :        -46.893536886 Ha          -1276.038062770 eV
  LDA X and C from self-consistent density 
  X Energy LDA        :        -40.783466254 Ha          -1109.774581469 eV
  C Energy LDA        :         -3.340750612 Ha            -90.906449430 eV
  ------------------------------------ 
  End decomposition of the XC Energy 
  ------------------------------------ 
  Performing Hirshfeld analysis of fragment charges and moments.
  ----------------------------------------------------------------------
  | Atom     1: O
  |   Hirshfeld charge        :     -0.13346895
  |   Free atom volume        :     23.95238533
  |   Hirshfeld volume        :     21.89613247
  |   Hirshfeld dipole vector :     -0.00647155       0.02450889       0.03165197
  |   Hirshfeld dipole moment :      0.04055138
  |   Hirshfeld second moments:      0.08464762      -0.00570318      -0.00216853
  |                                 -0.00570318       0.03738252      -0.02456282
  |                                 -0.00216853      -0.02456282       0.05173779
  ----------------------------------------------------------------------
  | Atom     2: H
  |   Hirshfeld charge        :      0.10529195
  |   Free atom volume        :     10.44207651
  |   Hirshfeld volume        :     10.39953147
  |   Hirshfeld dipole vector :     -0.01762195       0.00394012       0.00585224
  |   Hirshfeld dipole moment :      0.01898174
  |   Hirshfeld second moments:      0.02629795       0.00832194       0.00208425
  |                                  0.00832194       0.01605552       0.00893073
  |                                  0.00208425       0.00893073       0.05121895
  ----------------------------------------------------------------------
  | Atom     3: H
  |   Hirshfeld charge        :      0.10778862
  |   Free atom volume        :     10.44207651
  |   Hirshfeld volume        :     13.23127318
  |   Hirshfeld dipole vector :      0.01204583      -0.00890326       0.02020877
  |   Hirshfeld dipole moment :      0.02515481
  |   Hirshfeld second moments:     -0.03508244      -0.03222599       0.00732943
  |                                 -0.03222599      -0.01560370      -0.00238800
  |                                  0.00732943      -0.00238800       0.01626059
  ----------------------------------------------------------------------
  | Atom     4: H
  |   Hirshfeld charge        :      0.11033219
  |   Free atom volume        :     10.44207651
  |   Hirshfeld volume        :      9.23927060
  |   Hirshfeld dipole vector :     -0.01969501       0.00007147       0.01819118
  |   Hirshfeld dipole moment :      0.02681077
  |   Hirshfeld second moments:      0.07011206       0.00448023       0.01128864
  |                                  0.00448023       0.06701127       0.00419752
  |                                  0.01128864       0.00419752       0.02059025
  ----------------------------------------------------------------------
  | Atom     5: O
  |   Hirshfeld charge        :     -0.23367442
  |   Free atom volume        :     23.95238533
  |   Hirshfeld volume        :     21.57217684
  |   Hirshfeld dipole vector :     -0.02401508       0.02569126       0.00063781
  |   Hirshfeld dipole moment :      0.03517345
  |   Hirshfeld second moments:      0.04027756       0.04430484      -0.01229876
  |                                  0.04430484       0.03525015       0.00853033
  |                                 -0.01229876       0.00853033       0.05966207
  ----------------------------------------------------------------------
  | Atom     6: H
  |   Hirshfeld charge        :      0.09411966
  |   Free atom volume        :     10.44207651
  |   Hirshfeld volume        :      8.95001658
  |   Hirshfeld dipole vector :      0.00445299       0.02417861       0.02935817
  |   Hirshfeld dipole moment :      0.03829277
  |   Hirshfeld second moments:      0.06108768      -0.00437983      -0.00687312
  |                                 -0.00437983       0.03007905      -0.01940363
  |                                 -0.00687312      -0.01940363       0.06981593
  ----------------------------------------------------------------------
  | Atom     7: H
  |   Hirshfeld charge        :      0.14369079
  |   Free atom volume        :     10.44207651
  |   Hirshfeld volume        :      8.47949523
  |   Hirshfeld dipole vector :     -0.07990499      -0.04732384       0.02377591
  |   Hirshfeld dipole moment :      0.09586265
  |   Hirshfeld second moments:      0.06473712       0.00905218       0.00135709
  |                                  0.00905218       0.08030160       0.01077153
  |                                  0.00135709       0.01077153       0.09085276
  ----------------------------------------------------------------------
  | Atom     8: O
  |   Hirshfeld charge        :     -0.22177998
  |   Free atom volume        :     23.95238533
  |   Hirshfeld volume        :     23.35103495
  |   Hirshfeld dipole vector :      0.02813193      -0.01117867      -0.01786014
  |   Hirshfeld dipole moment :      0.03514758
  |   Hirshfeld second moments:     -0.03506302       0.00169430       0.03985124
  |                                  0.00169430       0.03458397       0.00261711
  |                                  0.03985124       0.00261711       0.04939491
  ----------------------------------------------------------------------
  | Atom     9: H
  |   Hirshfeld charge        :      0.05083322
  |   Free atom volume        :     10.44207651
  |   Hirshfeld volume        :     14.57246237
  |   Hirshfeld dipole vector :     -0.01168724      -0.01245069       0.02633739
  |   Hirshfeld dipole moment :      0.03138900
  |   Hirshfeld second moments:     -0.09989940      -0.02441087       0.01080507
  |                                 -0.02441087      -0.06036218       0.00256329
  |                                  0.01080507       0.00256329       0.01609924
  ----------------------------------------------------------------------
  | Atom    10: H
  |   Hirshfeld charge        :      0.09772305
  |   Free atom volume        :     10.44207651
  |   Hirshfeld volume        :     12.78692483
  |   Hirshfeld dipole vector :     -0.02062090      -0.01020597      -0.06174819
  |   Hirshfeld dipole moment :      0.06589554
  |   Hirshfeld second moments:     -0.02140590       0.00167955       0.02517459
  |                                  0.00167955       0.01241001       0.00437993
  |                                  0.02517459       0.00437993       0.01000124
  ----------------------------------------------------------------------
  | Atom    11: O
  |   Hirshfeld charge        :     -0.28413151
  |   Free atom volume        :     23.95238533
  |   Hirshfeld volume        :     22.87920266
  |   Hirshfeld dipole vector :     -0.05041585      -0.01162768       0.02530662
  |   Hirshfeld dipole moment :      0.05759675
  |   Hirshfeld second moments:     -0.03338594      -0.02643634       0.03958321
  |                                 -0.02643634       0.01316797       0.00355175
  |                                  0.03958321       0.00355175       0.02850467
  ----------------------------------------------------------------------
  | Atom    12: H
  |   Hirshfeld charge        :      0.12062265
  |   Free atom volume        :     10.44207651
  |   Hirshfeld volume        :      8.39381173
  |   Hirshfeld dipole vector :      0.01177920      -0.01382310       0.09954754
  |   Hirshfeld dipole moment :      0.10119061
  |   Hirshfeld second moments:      0.07384850      -0.01248073       0.01220461
  |                                 -0.01248073       0.08241885       0.00400332
  |                                  0.01220461       0.00400332       0.06868525
  ----------------------------------------------------------------------
  | Atom    13: H
  |   Hirshfeld charge        :      0.07447058
  |   Free atom volume        :     10.44207651
  |   Hirshfeld volume        :      9.46763578
  |   Hirshfeld dipole vector :     -0.03242961       0.02012939       0.00784480
  |   Hirshfeld dipole moment :      0.03896681
  |   Hirshfeld second moments:      0.01615323       0.01209246      -0.00243929
  |                                  0.01209246       0.03826952       0.01133155
  |                                 -0.00243929       0.01133155       0.06616376
  ----------------------------------------------------------------------
  | Atom    14: O
  |   Hirshfeld charge        :     -0.23301137
  |   Free atom volume        :     23.95238533
  |   Hirshfeld volume        :     22.54281120
  |   Hirshfeld dipole vector :      0.02969795       0.01838582       0.02506784
  |   Hirshfeld dipole moment :      0.04299306
  |   Hirshfeld second moments:      0.00937636      -0.03405387      -0.04128029
  |                                 -0.03405387       0.02655294      -0.00689635
  |                                 -0.04128029      -0.00689635       0.03567046
  ----------------------------------------------------------------------
  | Atom    15: H
  |   Hirshfeld charge        :      0.12088355
  |   Free atom volume        :     10.44207651
  |   Hirshfeld volume        :      9.60615090
  |   Hirshfeld dipole vector :     -0.04493064       0.05770663       0.05957589
  |   Hirshfeld dipole moment :      0.09432977
  |   Hirshfeld second moments:      0.05850560      -0.01032392      -0.01730775
  |                                 -0.01032392       0.05330724      -0.00712940
  |                                 -0.01730775      -0.00712940       0.05849432
  ----------------------------------------------------------------------
  | Atom    16: H
  |   Hirshfeld charge        :      0.08024505
  |   Free atom volume        :     10.44207651
  |   Hirshfeld volume        :     12.22792235
  |   Hirshfeld dipole vector :      0.02463758       0.00792181      -0.01128127
  |   Hirshfeld dipole moment :      0.02823177
  |   Hirshfeld second moments:     -0.01456890      -0.02144061       0.00147150
  |                                 -0.02144061       0.01490921       0.03277658
  |                                  0.00147150       0.03277658      -0.00505626
  ----------------------------------------------------------------------


------------------------------------------------------------------------------
  Final output of selected total energy values:

  The following output summarizes some interesting total energy values
  at the end of a run (AFTER all relaxation, molecular dynamics, etc.).

  | Total energy of the DFT / Hartree-Fock s.c.f. calculation      :         -10429.602609429 eV
  | Final zero-broadening corrected energy (caution - metals only) :         -10429.605430377 eV
  | For reference only, the value of 1 Hartree used in FHI-aims is :             27.211384500 eV

  Before relying on these values, please be sure to understand exactly which
  total energy value is referred to by a given number. Different objects may
  all carry the same name 'total energy'. Definitions:

  Total energy of the DFT / Hartree-Fock s.c.f. calculation:
  | Note that this energy does not include ANY quantities calculated after the
  | s.c.f. cycle, in particular not ANY RPA, MP2, etc. many-body perturbation terms.

  Final zero-broadening corrected energy:
  | For metallic systems only, a broadening of the occupation numbers at the Fermi
  | level can be extrapolated back to zero broadening by an electron-gas inspired
  | formula. For all systems that are not real metals, this value can be
  | meaningless and should be avoided.

------------------------------------------------------------------------------

------------------------------------------------------------
          Leaving FHI-aims.
          Date     :  20150727, Time     :  120543.798

          Computational steps:
          | Number of self-consistency cycles          :           16

          Detailed time accounting                     :  max(cpu_time)    wall_clock(cpu1)
          | Total time                                 :       41.454 s          41.498 s
          | Preparation time                           :        0.170 s           0.502 s
          | Grid partitioning                          :        0.145 s           0.145 s
          | Preloading free-atom quantities on grid    :        0.013 s           0.013 s
          | Free-atom superposition energy             :        0.074 s           0.074 s
          | Total time for integrations                :       18.149 s          18.153 s
          | Total time for solution of K.-S. equations :        1.123 s           1.125 s
          | Total time for density & force components  :       13.780 s          13.779 s
          | Total time for mixing                      :        0.219 s           0.218 s
          | Total time for Hartree multipole update    :        0.080 s           0.080 s
          | Total time for Hartree multipole sum       :        7.046 s           7.043 s
          | Total time for total energy evaluation     :        0.005 s           0.006 s
          | Total time for scaled ZORA corrections     :        0.000 s           0.000 s
          | Total time for TS (2009) vdW correction    :        0.057 s           0.058 s

          Have a nice day.
------------------------------------------------------------
