  MPI-parallelism will be employed.
------------------------------------------------------------
          Invoking FHI-aims ...
          Version 081213
          Compiled on 2013/08/29 at 17:41:06 on host generoso.

          When using FHI-aims, please cite the following reference:

          Volker Blum, Ralf Gehrke, Felix Hanke, Paula Havu,
          Ville Havu, Xinguo Ren, Karsten Reuter, and Matthias Scheffler,
          'Ab Initio Molecular Simulations with Numeric Atom-Centered Orbitals: FHI-aims',
          Computer Physics Communications 180, 2175-2196 (2009)

          For any questions about FHI-aims, please visit the aimsclub website
          with its forums and wiki. Contributions to both the forums and the
          wiki are warmly encouraged - they are for you, and everyone is welcome there.

------------------------------------------------------------

  Date     :  20150727, Time     :  120221.623
  Time zero on CPU 1             :   0.409930000000000E-01  s.
  Internal wall clock time zero  :           207230541.623  s.

  Using        8 parallel tasks.
  Task        0 on host gen59 reporting.
  Task        1 on host gen59 reporting.
  Task        2 on host gen59 reporting.
  Task        3 on host gen59 reporting.
  Task        4 on host gen59 reporting.
  Task        5 on host gen59 reporting.
  Task        6 on host gen59 reporting.
  Task        7 on host gen59 reporting.

  Performing system and environment tests:
  | Environment variable OMP_NUM_THREADS correctly set to 1.
  | Checking for scalapack...
  | No scalapack compiled in.

  Obtaining array dimensions for all initial allocations:
  
  -----------------------------------------------------------------------
  Parsing control.in (first pass over file, find array dimensions only).
  The contents of control.in will be repeated verbatim below
  unless switched off by setting 'verbatim_writeout .false.' .
  in the first line of control.in .
  -----------------------------------------------------------------------
  
  #########################################################################################
  #
  #  Volker Blum, FHI 2008 : Test run input file control.in
  #
  #########################################################################################
  #
  #  Physical model
  #
    xc                 rpbe
    spin               none
    relativistic       atomic_zora scalar
    charge             0.
   vdw_correction_hirshfeld
  #
  #  SCF convergence
  #
    occupation_type    gaussian 0.01
    mixer              pulay
      n_max_pulay        10
      charge_mix_param   0.1
    sc_accuracy_rho    5E-5
    sc_accuracy_eev    5E-3
    sc_accuracy_etot   5E-6
    sc_iter_limit      3000
  #
  #  Eigenvalue solver
  #
    KS_method          lapack
      empty_states       8
      basis_threshold    0.e-5
  #
  #  Efficiency
  #
  #   all previous settings are now default, except stratmann still
  #   undecided. Continue to handle stratmann with care, if at all.
  #
  #  partition_type stratmann
    partition_type rho_r2
  #  hartree_partition_type stratmann
  #
  #  Oprions for large clusters (100's of atoms: memory saving / better scaling)
  #
  # for periodic systems:
  #
    density_update_method orbital
    packed_matrix_format none
  #  k_grid 6 6 6
  #  output k_eigenvalue 1
  #  distributed_spline_storage .true.
  #
  #  Relaxation
  #
  #  relax_geometry   bfgs 5.e-3
    sc_accuracy_forces 5.E-4
    final_forces_cleaned .true.
  #
  #  Output options
  #
  #  output mulliken
    output Hirshfeld
  #  output dipole
  
  #harmonic_length_scale 0.001
  
  ################################################################################
  #
  #  FHI-aims code project
  #  VB, Fritz-Haber Institut, 2007
  #
  #  Suggested "safe" defaults for H atom (to be pasted into control.in file)
  #  Basis constructed for a non-relativistic H2 molecule using the
  #  PW-LDA functional.
  #
  ################################################################################
    species        H
  #     global species definitions
      nucleus             1
      cut_pot             4.0  2.0  1.0
      cut_free_atom       finite 8.0
      logarithmic         0.00010000 100.00  1.0123
      basis_dep_cutoff    1d-4  # 1d-4 is safe default - please check 5d-4 if you wish!
      radial_base         24 7.0
      radial_multiplier   2
      angular_grids       specified
        division   0.2783  110
        division   0.3822  194
        division   0.5626  302
  #      division   0.5922  434
  #      division   0.6227  590
  #      division   0.7206  770
        outer_grid  302
      l_hartree           4
  ################################################################################
  #
  #  Definition of "minimal" basis
  #
  ################################################################################
  #     valence basis states
      valence      1  s   1.
  #     ion occupancy
      ion_occ      1  s   0.5
  ################################################################################
  #
  #  Suggested additional basis functions. For production calculations,
  #  uncomment them one after another (the most important basis functions are
  #  listed first).
  #
  ################################################################################
  #  "First tier" - improvements: -1014.90 meV to -62.69 meV
       hydro 2 s 2.1
       hydro 2 p 3.5
  #  "Second tier" - improvements: -12.89 meV to -1.83 meV
       hydro 1 s 0.85
       hydro 2 p 3.7
       hydro 2 s 1.2
       hydro 3 d 7
  #  "Third tier" - improvements: -0.25 meV to -0.12 meV
  #     hydro 4 f 11.2
  #     hydro 3 p 4.8
  #     hydro 4 d 9
  #     hydro 3 s 3.2
  
  ################################################################################
  #
  #  FHI-aims code project
  #  VB, Fritz-Haber Institut, 2007
  #
  #  Suggested "safe" defaults for O atom (to be pasted into control.in file)
  #  All values have been tested for a non-relativistic, non-spinpolarized O2
  #  molecule using the PW-LDA functional. Validity for PBE is expected.
  #
  #  Constructed for dimers: 1.0 A, 1.208 A, 1.5 A, 2.0 A, 3.0 A
  #
  ################################################################################
    species        O
  #     global species definitions
      nucleus             8
      mass                15.9994
      l_hartree           4
      cut_pot             4.0  2.0  1.0
      cut_free_atom       finite 8.0
      basis_dep_cutoff    1d-4  # 1d-4 is safe default - please check 5d-4 if you wish!
      logarithmic         0.00010000 100.00  1.0123
      radial_base         36 7.0
      radial_multiplier   2
       angular_grids specified
        division   0.4087  110
        division   0.5181  194
        division   0.6184  302
  #      division   0.7315  434
  #      division   0.7934  590
  #      division   0.9656  770
  #      division   1.4041  974
  #      outer_grid 974
        outer_grid 302
  ################################################################################
  #
  #  Definition of "minimal" basis
  #
  ################################################################################
  #     valence basis states
      valence      2  s   2.
      valence      2  p   4.
  #     ion occupancy
      ion_occ      2  s   1.
      ion_occ      2  p   3.
  ################################################################################
  #
  #  Suggested additional basis functions. For production calculations,
  #  uncomment them one after another (the most important basis functions are
  #  listed first).
  #
  ################################################################################
  #  "First tier" - improvements: -699.05 meV to -159.38 meV
       hydro 2 p 1.8
       hydro 3 d 7.6
       hydro 3 s 6.4
  #  "Second tier" - improvements: -49.91 meV to -5.39 meV
       hydro 4 f 11.6
       hydro 3 p 6.2
       hydro 3 d 5.6
       hydro 5 g 17.6
       hydro 1 s 0.75
  #  "Third tier" - improvements: -2.83 meV to -0.50 meV
  #     ionic 2 p auto
  #     hydro 4 f 10.8
  #     hydro 4 d 4.7
  #     hydro 2 s 6.8
  #  "Fourth tier" - improvements: -0.40 meV to -0.12 meV
  #     hydro 3 p 5
  #     hydro 3 s 3.3
  #     hydro 5 g 15.6
  #     hydro 4 f 17.6
  #     hydro 4 d 14
  # Further basis functions - -0.08 meV and below
  #     hydro 3 s 2.1
  #     hydro 4 d 11.6
  #     hydro 3 p 16
  #     hydro 2 s 17.2
  
  
  -----------------------------------------------------------------------
  Completed first pass over input file control.in .
  -----------------------------------------------------------------------
  
  
  -----------------------------------------------------------------------
  Parsing geometry.in (first pass over file, find array dimensions only).
  The contents of geometry.in will be repeated verbatim below
  unless switched off by setting 'verbatim_writeout .false.' .
  in the first line of geometry.in .
  -----------------------------------------------------------------------
  
  atom      -4.053030000      0.065001000     -1.525160000  O
  atom      -4.566710000      0.974813000     -1.912820000  H
  atom      -3.067820000      0.330172000     -1.477310000  H
  atom      -4.370360000     -0.049164000     -0.572274000  H
  atom      -4.581760000     -0.256435000      0.939478000  O
  atom      -4.349860000      0.471090000      1.504340000  H
  atom      -5.393870000     -0.726611000      1.228070000  H
  atom      -5.293160000      2.192130000     -2.328800000  O
  atom      -4.829300000      2.988660000     -1.973850000  H
  atom      -5.428570000      2.328640000     -3.235170000  H
  atom      -3.818880000      2.024990000      2.187990000  O
  atom      -3.690880000      1.961360000      3.202150000  H
  atom      -4.546490000      2.751300000      2.045370000  H
  atom      -1.975360000      2.858040000      0.453140000  O
  atom      -1.223550000      3.375850000      0.786238000  H
  atom      -2.537520000      2.567960000      1.156120000  H
  
  -----------------------------------------------------------------------
  Completed first pass over input file geometry.in .
  -----------------------------------------------------------------------
  
 
  Basic array size parameters: 
  | Number of species                 :        2
  | Number of atoms                   :       16
  | Max. basis fn. angular momentum   :        4
  | Max. atomic/ionic basis occupied n:        2
  | Max. number of basis fn. types    :        2
  | Max. radial fns per species/type  :        8
  | Max. logarithmic grid size        :     1301
  | Max. radial integration grid size :       73
  | Max. angular integration grid size:      302
  | Max. angular grid division number :        8
  | Radial grid for Hartree potential :     1301
  | Number of spin channels           :        1

------------------------------------------------------------
          Reading file control.in.
------------------------------------------------------------
  XC: Using RPBE gradient-corrected functionals.
  Spin treatment: No spin polarisation.
  Scalar relativistic treatment of kinetic energy: on-site free-atom approximation to ZORA.
  Charge =   0.000000E+00: Neutral system requested explicitly.
  Using non-empirical van der Waals correction (Hirshfeld partitioning):
  Occupation type: Gaussian broadening, width =   0.100000E-01 eV.
  Using pulay charge density mixing.
  Pulay mixing - number of memorized iterations:   10
  Charge density mixing - mixing parameter:     0.1000
  Convergence accuracy of self-consistent charge density: 0.5000E-04
  Convergence accuracy of sum of eigenvalues: 0.5000E-02
  Convergence accuracy of total energy: 0.5000E-05
  Maximum number of s.-c. iterations  :  3000
  Kohn-Sham eigenvalues and eigenfunctions calculated by lapack diagonalisation (D&C).
  Number of empty states per atom:        8
  Threshold for basis singularities: 0.0000E+00
  Partition function in integrals calculations: rho / r^2
 Using packed matrix format           0
  Convergence accuracy of forces: 0.5000E-03
  Cleaning forces before final output.
  Hirshfeld charge analysis will be performed.
 
  Reading configuration options for species H                   .
  | Found nuclear charge :   1.0000
  | Found cutoff potl. onset [A], width [A], scale factor :    4.00000    2.00000    1.00000
  | Found cutoff specification for free atom: Cutoff potential begins at    8.00000 A.
  | Found logarithmic grid data [bohr] : 0.1000E-03 0.1000E+03 0.1012E+01
  | Threshold for basis-dependent cutoff potential is   0.100000E-03
  | Found data for basic radial integration grid :    24 points, outermost radius =    7.000 A
  | Found multiplier for basic radial grid :   2
  | Found angular grid specification: user-specified.
  | Specified grid contains     4 separate shells.
  | Check grid settings after all constraints further below.
  | Found l_max for Hartree potential  :   4
  | Found free-atom valence shell :  1 s   1.000
  | No ionic wave fns used. Skipping ion_occ.
  | Found hydrogenic basis function :  2 s   2.100
  | Found hydrogenic basis function :  2 p   3.500
  | Found hydrogenic basis function :  1 s   0.850
  | Found hydrogenic basis function :  2 p   3.700
  | Found hydrogenic basis function :  2 s   1.200
  | Found hydrogenic basis function :  3 d   7.000
  Species H                   : Missing cutoff potential type.
  Defaulting to exp(1/x)/(1-x)^2 type cutoff potential.
  Species H : On-site basis accuracy parameter (for Gram-Schmidt orthonormalisation) not specified.
  Using default value basis_acc =  0.1000000E-03.
  Species H                   : Using default innermost maximum threshold i_radial=  2 for radial functions.
  Species H                   : Basic radial grid will be enhanced according to radial_multiplier =   2, to contain    49 grid points.
 
  Reading configuration options for species O                   .
  | Found nuclear charge :   8.0000
  | Found atomic mass :    15.9994000000000      amu
  | Found l_max for Hartree potential  :   4
  | Found cutoff potl. onset [A], width [A], scale factor :    4.00000    2.00000    1.00000
  | Found cutoff specification for free atom: Cutoff potential begins at    8.00000 A.
  | Threshold for basis-dependent cutoff potential is   0.100000E-03
  | Found logarithmic grid data [bohr] : 0.1000E-03 0.1000E+03 0.1012E+01
  | Found data for basic radial integration grid :    36 points, outermost radius =    7.000 A
  | Found multiplier for basic radial grid :   2
  | Found angular grid specification: user-specified.
  | Specified grid contains     4 separate shells.
  | Check grid settings after all constraints further below.
  | Found free-atom valence shell :  2 s   2.000
  | Found free-atom valence shell :  2 p   4.000
  | No ionic wave fns used. Skipping ion_occ.
  | No ionic wave fns used. Skipping ion_occ.
  | Found hydrogenic basis function :  2 p   1.800
  | Found hydrogenic basis function :  3 d   7.600
  | Found hydrogenic basis function :  3 s   6.400
  | Found hydrogenic basis function :  4 f  11.600
  | Found hydrogenic basis function :  3 p   6.200
  | Found hydrogenic basis function :  3 d   5.600
  | Found hydrogenic basis function :  5 g  17.600
  | Found hydrogenic basis function :  1 s   0.750
  Species O                   : Missing cutoff potential type.
  Defaulting to exp(1/x)/(1-x)^2 type cutoff potential.
  Species O : On-site basis accuracy parameter (for Gram-Schmidt orthonormalisation) not specified.
  Using default value basis_acc =  0.1000000E-03.
  Species O                   : Using default innermost maximum threshold i_radial=  2 for radial functions.
  Species O                   : Basic radial grid will be enhanced according to radial_multiplier =   2, to contain    73 grid points.
 
  Finished reading input file 'control.in'. Consistency checks are next.
 
  Target number of points in a grid batch is not set. Defaulting to  100
  Method for grid partitioning is not set. Defaulting to parallel hash+maxmin partitioning.
  Batch size limit is not set. Defaulting to    200
  By default, will store active basis functions for each batch.
  If in need of memory, prune_basis_once .false. can be used to disable this option.
  communication_type for Hartree potential was not specified.
  Defaulting to calc_hartree .
  Pulay mixer: Number of initial linear mixing iterations not set.
  Defaulting to    0 iterations.
  Work space size for distributed Hartree potential not set.
  Defaulting to   0.200000E+03 MB.
  Algorithm-dependent basis array size parameters:
  | n_max_pulay                         :       10
  Geometry relaxation not requested: no relaxation will be performed.
  Handling of forces: Unphysical translation and rotation will be removed from forces.
  No accuracy limit for integral partition fn. given. Defaulting to 0.1000E-14.
  No threshold value for u(r) in integrations given. Defaulting to 0.1000E-05.
  No accuracy for occupation numbers given. Defaulting to 0.1000E-07.
  No threshold value for occupation numbers given. Defaulting to 0.0000E+00.
  No accuracy for fermi level given. Defaulting to 0.1000E-19.
  Maximum # of iterations to find E_F not set. Defaulting to  200.
  Will not use alltoall communication since running on < 1024 CPUs.
  Partitioning for Hartree potential was not defined. Using partition_type for integrals.
  | Reporting present value of keyword multip_moments_threshold  :       0.10000000E-09
  | This value may affect high angular momentum components of the Hartree potential in periodic systems.
  No q(lm)/r^(l+1) cutoff set for long-range Hartree potential.
  | Using default value of  0.100000E-09 .
  | Verify using the multipole_threshold keyword.
  Defaulting to new monopole extrapolation.
  Density update method: Loop over occupied states selected for charge density update.
------------------------------------------------------------


------------------------------------------------------------
          Reading geometry description geometry.in.
------------------------------------------------------------
  Input structure read successfully.
  The structure contains       16 atoms,  and a total of         51.000 electrons.

  Input geometry:
  | No unit cell requested.
  | Atomic structure:
  |       Atom                x [A]            y [A]            z [A]
  |    1: Species O             -4.053030         0.065001        -1.525160
  |    2: Species H             -4.566710         0.974813        -1.912820
  |    3: Species H             -3.067820         0.330172        -1.477310
  |    4: Species H             -4.370360        -0.049164        -0.572274
  |    5: Species O             -4.581760        -0.256435         0.939478
  |    6: Species H             -4.349860         0.471090         1.504340
  |    7: Species H             -5.393870        -0.726611         1.228070
  |    8: Species O             -5.293160         2.192130        -2.328800
  |    9: Species H             -4.829300         2.988660        -1.973850
  |   10: Species H             -5.428570         2.328640        -3.235170
  |   11: Species O             -3.818880         2.024990         2.187990
  |   12: Species H             -3.690880         1.961360         3.202150
  |   13: Species H             -4.546490         2.751300         2.045370
  |   14: Species O             -1.975360         2.858040         0.453140
  |   15: Species H             -1.223550         3.375850         0.786238
  |   16: Species H             -2.537520         2.567960         1.156120
  |

  | The smallest distance between any two atoms is         0.92654057 AA.
  |
  | The first atom of this pair is atom number                      8 .
  | The second atom of this pair is atom number                    10 .

  Structure-dependent array size parameters: 
  | Maximum number of distinct radial functions  :       18
  | Maximum number of basis functions            :      360
  | Number of Kohn-Sham states (occupied + empty):       90
------------------------------------------------------------

------------------------------------------------------------
          Preparing all fixed parts of the calculation.
------------------------------------------------------------
  Determining machine precision:
    2.225073858507201E-308
  Setting up grids for atomic and cluster calculations.

  Creating wave function, potential, and density for free atoms.

  Species: H

  List of occupied orbitals and eigenvalues:
    n    l              occ      energy [Ha]    energy [eV]
    1    0           1.0000        -0.241408        -6.5691


  Species: O

  List of occupied orbitals and eigenvalues:
    n    l              occ      energy [Ha]    energy [eV]
    1    0           2.0000       -18.944147      -515.4965
    2    0           2.0000        -0.883529       -24.0421
    2    1           4.0000        -0.330176        -8.9845

  Creating fixed part of basis set: Ionic, confined, hydrogenic.
 
  H                    hydrogenic:
 
  List of hydrogenic basis orbitals: 
    n    l      effective z      eigenvalue [eV]  inner max. [A]     outer max. [A]     outer radius [A]   
    2    0         2.100000       -14.9965           0.193241           1.317192           5.372934
    2    1         3.500000       -41.6672           0.602363           0.602363           4.056010
    1    0         0.850000        -9.8292           0.624864           0.624864           5.372934
    2    1         3.700000       -46.5653           0.573616           0.573616           3.909951
    2    0         1.200000        -4.5995           0.334977           2.228160           5.505921
    3    2         7.000000       -74.0753           0.680692           0.680692           3.769152
 
 
  O                    hydrogenic:
 
  List of hydrogenic basis orbitals: 
    n    l      effective z      eigenvalue [eV]  inner max. [A]     outer max. [A]     outer radius [A]   
    2    1         1.800000       -11.0118           1.178546           1.178546           5.432516
    3    2         7.600000       -87.3182           0.624117           0.624117           3.541422
    3    0         6.400000       -61.9209           0.061166           1.081887           4.306510
    4    3        11.600000      -114.4238           0.731621           0.731621           3.584982
    3    1         6.200000       -58.1113           0.255677           1.030255           4.306510
    3    2         5.600000       -47.4081           0.847222           0.847222           4.413102
    5    4        17.600000      -168.5799           0.749730           0.749730           3.372413
    1    0         0.750000        -7.6499           0.705275           0.705275           5.366508
 

  Adding cutoff potential to free-atom effective potential.
  Creating atomic-like basis functions for current effective potential.

  Species H                   :

  List of atomic basis orbitals and eigenvalues:
    n    l      energy [Ha]    energy [eV]    outer radius [A]
    1    0        -0.241374        -6.5681       5.372934


  Species O                   :

  List of atomic basis orbitals and eigenvalues:
    n    l      energy [Ha]    energy [eV]    outer radius [A]
    1    0       -18.944147      -515.4965       1.415745
    2    0        -0.883529       -24.0421       5.048305
    2    1        -0.330173        -8.9845       5.301302

  Assembling full basis from fixed parts.
  | Species H :   atomic orbital   1 s accepted.
  | Species H :    hydro orbital   2 s accepted.
  | Species H :    hydro orbital   1 s accepted.
  | Species H :    hydro orbital   2 s accepted.
  | Species H :    hydro orbital   2 p accepted.
  | Species H :    hydro orbital   2 p accepted.
  | Species H :    hydro orbital   3 d accepted.
  | Species O :   atomic orbital   1 s accepted.
  | Species O :    hydro orbital   3 s accepted.
  | Species O :   atomic orbital   2 s accepted.
  | Species O :    hydro orbital   1 s accepted.
  | Species O :    hydro orbital   3 p accepted.
  | Species O :   atomic orbital   2 p accepted.
  | Species O :    hydro orbital   2 p accepted.
  | Species O :    hydro orbital   3 d accepted.
  | Species O :    hydro orbital   3 d accepted.
  | Species O :    hydro orbital   4 f accepted.
  | Species O :    hydro orbital   5 g accepted.
 
  Basis size parameters after reduction:
  | Total number of radial functions:       18
  | Total number of basis functions :      360
 
  Testing on-site integration grid accuracy.
  |  Species  Function  <phi|h_atom|phi> (log., in eV)  <phi|h_atom|phi> (rad., in eV)
           1        1                 -6.5683835025                 -6.5684759159
           1        2                 13.3711789951                 13.3708738703
           1        3                 23.6590910787                 23.6532055418
           1        4                 16.2963827186                 16.1870710655 ***
           1        5                 28.7627214838                 28.7627215090
           1        6                 59.5965249172                 59.5965950857
           1        7                 60.2220506392                 60.2220503827
           2        8               -515.4964576505               -515.4964530710
           2        9                 15.3030791347                 15.3030722972
           2       10                -21.7296094581                -21.7296135470
           2       11                 14.2969371730                 14.2969701621
           2       12                 21.0679693190                 21.0679697493
           2       13                 -2.3833606469                 -2.3833613176
           2       14                 13.7067136422                 13.7066766629
           2       15                 45.8013116808                 45.8013116965
           2       16                 52.2309815402                 52.2309831494
           2       17                 85.4120732416                 85.4120732763
           2       18                142.1019167745                142.1019167817
 * Note: Onsite integrals marked "***" above are less accurate than
 * onsite_accuracy_threshold =    0.03000 eV. Usually, this is harmless.
 * When in doubt, tighten the "radial" and/or "radial_multiplier" flags to check.

  Preparing densities etc. for the partition functions (integrals / Hartree potential).

  Preparations completed.
  max(cpu_time)          :      0.173 s.
  Wall clock time (cpu1) :      0.534 s.
------------------------------------------------------------

------------------------------------------------------------
          Begin self-consistency loop: Initialization.

          Date     :  20150727, Time     :  120222.179
------------------------------------------------------------

  Initializing index lists of integration centers etc. from given atomic structure:
  | Number of centers in hartree potential         :        16
  | Number of centers in hartree multipole         :        16
  | Number of centers in electron density summation:        16
  | Number of centers in basis integrals           :        16
  | Number of centers in integrals                 :        16
  Partitioning the integration grid into batches with parallel hashing+maxmin method.
  | Number of batches:     2234
  | Maximal batch size:     200
  | Minimal batch size:      50
  | Average batch size:      93.243
  | Standard deviation of batch sizes:      32.513

  Integration load balanced across     8 MPI tasks.
  Work distribution over tasks is as follows:
  Task     0 has      26022 integration points.
  Task     1 has      26101 integration points.
  Task     2 has      26059 integration points.
  Task     3 has      25967 integration points.
  Task     4 has      26074 integration points.
  Task     5 has      26091 integration points.
  Task     6 has      26008 integration points.
  Task     7 has      25982 integration points.
  Initializing partition tables, free-atom densities, potentials, etc. across the integration grid (initialize_grid_storage).
  | Net number of integration points:   208304
  | of which are non-zero points    :   207758
  Obtaining max. number of non-zero basis functions in each batch (get_n_compute_maxes).
  | Maximal number of non-zero basis functions:      357 in task     0
  | Maximal number of non-zero basis functions:      356 in task     1
  | Maximal number of non-zero basis functions:      357 in task     2
  | Maximal number of non-zero basis functions:      357 in task     3
  | Maximal number of non-zero basis functions:      357 in task     4
  | Maximal number of non-zero basis functions:      357 in task     5
  | Maximal number of non-zero basis functions:      357 in task     6
  | Maximal number of non-zero basis functions:      356 in task     7
  Integrating Hamiltonian matrix: batch-based integration.
  Time summed over all CPUs for integration: real work        8.314 s, elapsed        8.528 s
  Integrating overlap matrix.
  Time summed over all CPUs for integration: real work        4.490 s, elapsed        4.567 s

  Updating Kohn-Sham eigenvalues, eigenvectors, occupation numbers, and Fermi level.
  Solving generalized eigenproblem
  Updating Kohn-Sham eigenvalues and eigenfunctions.
  Transforming overlap matrix and checking for singularities.
  Overlap matrix is nonsingular:
  | Lowest eigenvalue:  0.202645E-03
  Solving real generalised eigenvalue problem by standard LAPACK (fast)
  Determining occupation numbers for Kohn-Sham eigenstates.
  | Chemical potential (Fermi level) in eV                 : -.27166752E+01
  | Error in electron count due to remaining E_F inaccuracy: 0.24925839E-10
  | Maximum occupation number of highest empty state:  0.00E+00

  Writing Kohn-Sham eigenvalues.

  State    Occupation    Eigenvalue [Ha]    Eigenvalue [eV]
      1       2.00000         -19.065138         -518.78880
      2       2.00000         -19.064851         -518.78098
      3       2.00000         -19.059287         -518.62959
      4       2.00000         -19.054644         -518.50326
      5       2.00000         -19.035962         -517.99487
      6       2.00000          -1.130144          -30.75278
      7       2.00000          -1.116758          -30.38852
      8       2.00000          -1.105964          -30.09480
      9       2.00000          -1.103615          -30.03089
     10       2.00000          -1.069014          -29.08935
     11       2.00000          -0.655347          -17.83290
     12       2.00000          -0.651593          -17.73074
     13       2.00000          -0.650907          -17.71209
     14       2.00000          -0.640986          -17.44211
     15       2.00000          -0.620548          -16.88596
     16       2.00000          -0.597465          -16.25786
     17       2.00000          -0.534610          -14.54749
     18       2.00000          -0.512483          -13.94537
     19       2.00000          -0.507484          -13.80934
     20       2.00000          -0.494491          -13.45580
     21       2.00000          -0.483493          -13.15651
     22       2.00000          -0.452663          -12.31759
     23       2.00000          -0.446676          -12.15468
     24       2.00000          -0.438958          -11.94466
     25       2.00000          -0.431751          -11.74855
     26       1.00000          -0.099836           -2.71668
     27       0.00000          -0.074916           -2.03856
     28       0.00000          -0.055682           -1.51519
     29       0.00000          -0.048764           -1.32695
     30       0.00000          -0.032445           -0.88287
     31       0.00000          -0.018891           -0.51405
     32       0.00000           0.000343            0.00934
     33       0.00000           0.029913            0.81396
     34       0.00000           0.038594            1.05020
     35       0.00000           0.054443            1.48148
     36       0.00000           0.061054            1.66136
     37       0.00000           0.067825            1.84561
     38       0.00000           0.082375            2.24153
     39       0.00000           0.086965            2.36644
     40       0.00000           0.100178            2.72598
     41       0.00000           0.104697            2.84895
     42       0.00000           0.106472            2.89726
     43       0.00000           0.114240            3.10862
     44       0.00000           0.115641            3.14676
     45       0.00000           0.125669            3.41962
     46       0.00000           0.135673            3.69186
     47       0.00000           0.136678            3.71921
     48       0.00000           0.151996            4.13602
     49       0.00000           0.153880            4.18729
     50       0.00000           0.161696            4.39998
     51       0.00000           0.176534            4.80374
     52       0.00000           0.186779            5.08250
     53       0.00000           0.212335            5.77792
     54       0.00000           0.229603            6.24782
     55       0.00000           0.231898            6.31026
     56       0.00000           0.250624            6.81983
     57       0.00000           0.251645            6.84761
     58       0.00000           0.261303            7.11042
     59       0.00000           0.277484            7.55071
     60       0.00000           0.297688            8.10051
     61       0.00000           0.305271            8.30686
     62       0.00000           0.332295            9.04219
     63       0.00000           0.343697            9.35246
     64       0.00000           0.352608            9.59496
     65       0.00000           0.370364           10.07811
     66       0.00000           0.383079           10.42410
     67       0.00000           0.385215           10.48224
     68       0.00000           0.393090           10.69651
     69       0.00000           0.413913           11.26313
     70       0.00000           0.420120           11.43204
     71       0.00000           0.432295           11.76334
     72       0.00000           0.448741           12.21085
     73       0.00000           0.457827           12.45812
     74       0.00000           0.473097           12.87362
     75       0.00000           0.485510           13.21140
     76       0.00000           0.494440           13.45440
     77       0.00000           0.512661           13.95022
     78       0.00000           0.541802           14.74317
     79       0.00000           0.553321           15.05664
     80       0.00000           0.565290           15.38234
     81       0.00000           0.570225           15.51660
     82       0.00000           0.616272           16.76961
     83       0.00000           0.621961           16.92441
     84       0.00000           0.640963           17.44150
     85       0.00000           0.704083           19.15909
     86       0.00000           0.732342           19.92803
     87       0.00000           0.748635           20.37140
     88       0.00000           0.753730           20.51004
     89       0.00000           0.770239           20.95928
     90       0.00000           0.792002           21.55146

  Highest occupied state (VBM) at     -2.71667520 eV
  | Occupation number:      1.00000000

  Lowest unoccupied state (CBM) at    -2.03855509 eV
  | Occupation number:      0.00000000

  Overall HOMO-LUMO gap:      0.67812011 eV.
  Calculating total energy contributions from superposition of free atom densities.

  Total energy components:
  | Sum of eigenvalues            :        -217.94950095 Ha       -5930.70767197 eV
  | XC energy correction          :         -45.97806825 Ha       -1251.12689367 eV
  | XC potential correction       :          58.76803674 Ha        1599.15964413 eV
  | Free-atom electrostatic energy:        -178.38104972 Ha       -4853.99533147 eV
  | Hartree energy correction     :           0.00000000 Ha           0.00000000 eV
  | van der Waals energy corr.    :           0.00000000 Ha           0.00000000 eV
  | Entropy correction            :          -0.00010367 Ha          -0.00282095 eV
  | ---------------------------
  | Total energy                  :        -383.54058218 Ha      -10436.67025299 eV
  | Total energy, T -> 0          :        -383.54068585 Ha      -10436.67307394 eV  <-- do not rely on this value for anything but (periodic) metals
  | Electronic free energy        :        -383.54078951 Ha      -10436.67589489 eV

  Derived energy quantities:
  | Kinetic energy                :         379.93168981 Ha       10338.46729523 eV
  | Electrostatic energy          :        -717.49420374 Ha      -19524.01065455 eV
  | Energy correction for multipole
  | error in Hartree potential    :           0.00000000 Ha           0.00000000 eV
  | Sum of eigenvalues per atom                           :        -370.66922950 eV
  | Total energy (T->0) per atom                          :        -652.29206712 eV  <-- do not rely on this value for anything but (periodic) metals
  | Electronic free energy per atom                       :        -652.29224343 eV
  Initialize hartree_potential_storage
  Max. number of atoms included in rho_multipole:           16

  End scf initialization - timings             :  max(cpu_time)    wall_clock(cpu1)
  | Time for scf. initialization               :        2.240 s           2.240 s
  | Boundary condition initialization          :        0.000 s           0.000 s
  | Integration                                :        1.641 s           1.641 s
  | Solution of K.-S. eqns.                    :        0.213 s           0.213 s
  | Grid partitioning                          :        0.147 s           0.146 s
  | Preloading free-atom quantities on grid    :        0.014 s           0.014 s
  | Free-atom superposition energy             :        0.074 s           0.073 s
  | Total energy evaluation                    :        0.000 s           0.001 s
------------------------------------------------------------

------------------------------------------------------------
          Begin self-consistency iteration #    1

  Date     :  20150727, Time     :  120224.419
------------------------------------------------------------
  Evaluating new KS density.
  Integration grid: deviation in total charge (<rho> - N_e) =   2.492584E-11
  Pulay mixing of updated and previous charge densities.

  Evaluating partitioned Hartree potential by multipole expansion.
  | Analytical far-field extrapolation by fixed multipoles:
  | Hartree multipole sum: apparent total charge =  -0.117224E-05
  Summing up the Hartree potential.
  Time summed over all CPUs for potential: real work        2.893 s, elapsed        2.906 s
  | RMS charge density error from multipole expansion :   0.170018E-02

  Integrating Hamiltonian matrix: batch-based integration.
  Time summed over all CPUs for integration: real work        8.309 s, elapsed        8.496 s

  Updating Kohn-Sham eigenvalues, eigenvectors, occupation numbers, and Fermi level.
  Solving generalized eigenproblem
  Updating Kohn-Sham eigenvalues and eigenfunctions.
  Solving real generalised eigenvalue problem by standard LAPACK (fast)
  Determining occupation numbers for Kohn-Sham eigenstates.
  | Chemical potential (Fermi level) in eV                 : -.24848021E+01
  | Error in electron count due to remaining E_F inaccuracy: 0.00000000E+00
  | Maximum occupation number of highest empty state:  0.00E+00

  Writing Kohn-Sham eigenvalues.

  State    Occupation    Eigenvalue [Ha]    Eigenvalue [eV]
      1       2.00000         -19.011786         -517.33701
      2       2.00000         -18.998843         -516.98482
      3       2.00000         -18.982972         -516.55296
      4       2.00000         -18.966483         -516.10426
      5       2.00000         -18.965008         -516.06412
      6       2.00000          -1.102978          -30.01356
      7       2.00000          -1.086281          -29.55920
      8       2.00000          -1.068309          -29.07015
      9       2.00000          -1.058677          -28.80806
     10       2.00000          -1.032807          -28.10410
     11       2.00000          -0.625399          -17.01797
     12       2.00000          -0.622236          -16.93191
     13       2.00000          -0.617271          -16.79681
     14       2.00000          -0.610485          -16.61216
     15       2.00000          -0.598929          -16.29768
     16       2.00000          -0.567410          -15.44001
     17       2.00000          -0.504824          -13.73696
     18       2.00000          -0.477502          -12.99350
     19       2.00000          -0.469853          -12.78534
     20       2.00000          -0.457336          -12.44475
     21       2.00000          -0.449263          -12.22506
     22       2.00000          -0.421358          -11.46574
     23       2.00000          -0.408021          -11.10281
     24       2.00000          -0.395391          -10.75914
     25       2.00000          -0.388872          -10.58175
     26       1.00000          -0.091315           -2.48480
     27       0.00000          -0.067597           -1.83941
     28       0.00000          -0.048608           -1.32268
     29       0.00000          -0.040309           -1.09687
     30       0.00000          -0.024062           -0.65477
     31       0.00000          -0.011736           -0.31935
     32       0.00000           0.006469            0.17604
     33       0.00000           0.036846            1.00263
     34       0.00000           0.046851            1.27487
     35       0.00000           0.060613            1.64936
     36       0.00000           0.068633            1.86761
     37       0.00000           0.073317            1.99507
     38       0.00000           0.090339            2.45825
     39       0.00000           0.094839            2.58070
     40       0.00000           0.109521            2.98023
     41       0.00000           0.113196            3.08021
     42       0.00000           0.116393            3.16722
     43       0.00000           0.121990            3.31952
     44       0.00000           0.123817            3.36924
     45       0.00000           0.135267            3.68081
     46       0.00000           0.144460            3.93097
     47       0.00000           0.149029            4.05530
     48       0.00000           0.162443            4.42029
     49       0.00000           0.169036            4.59971
     50       0.00000           0.174308            4.74317
     51       0.00000           0.184988            5.03377
     52       0.00000           0.198482            5.40098
     53       0.00000           0.221330            6.02269
     54       0.00000           0.236631            6.43905
     55       0.00000           0.240166            6.53526
     56       0.00000           0.257544            7.00812
     57       0.00000           0.259973            7.07423
     58       0.00000           0.270377            7.35733
     59       0.00000           0.283460            7.71333
     60       0.00000           0.302552            8.23287
     61       0.00000           0.313060            8.51881
     62       0.00000           0.340644            9.26940
     63       0.00000           0.353209            9.61130
     64       0.00000           0.362664            9.86859
     65       0.00000           0.376935           10.25691
     66       0.00000           0.390626           10.62947
     67       0.00000           0.393058           10.69565
     68       0.00000           0.401978           10.93839
     69       0.00000           0.422810           11.50525
     70       0.00000           0.428827           11.66896
     71       0.00000           0.439485           11.95899
     72       0.00000           0.456231           12.41467
     73       0.00000           0.466583           12.69636
     74       0.00000           0.481969           13.11504
     75       0.00000           0.495970           13.49603
     76       0.00000           0.503473           13.70020
     77       0.00000           0.523507           14.24534
     78       0.00000           0.553328           15.05681
     79       0.00000           0.562786           15.31418
     80       0.00000           0.573857           15.61543
     81       0.00000           0.582422           15.84850
     82       0.00000           0.627546           17.07639
     83       0.00000           0.634304           17.26030
     84       0.00000           0.652464           17.75444
     85       0.00000           0.715890           19.48036
     86       0.00000           0.745680           20.29098
     87       0.00000           0.760313           20.68917
     88       0.00000           0.762895           20.75943
     89       0.00000           0.781414           21.26336
     90       0.00000           0.801755           21.81688

  Highest occupied state (VBM) at     -2.48480215 eV
  | Occupation number:      1.00000000

  Lowest unoccupied state (CBM) at    -2.48480215 eV
  | Occupation number:      1.00000000

  Overall HOMO-LUMO gap:      0.00000000 eV.

  Total energy components:
  | Sum of eigenvalues            :        -215.86790133 Ha       -5874.06446443 eV
  | XC energy correction          :         -46.19950480 Ha       -1257.15248879 eV
  | XC potential correction       :          59.05707363 Ha        1607.02473789 eV
  | Free-atom electrostatic energy:        -178.38104972 Ha       -4853.99533147 eV
  | Hartree energy correction     :          -2.02747484 Ha         -55.17039734 eV
  | van der Waals energy corr.    :           0.00000000 Ha           0.00000000 eV
  | Entropy correction            :          -0.00010367 Ha          -0.00282095 eV
  | ---------------------------
  | Total energy                  :        -383.41885707 Ha      -10433.35794415 eV
  | Total energy, T -> 0          :        -383.41896073 Ha      -10433.36076510 eV  <-- do not rely on this value for anything but (periodic) metals
  | Electronic free energy        :        -383.41906440 Ha      -10433.36358605 eV

  Derived energy quantities:
  | Kinetic energy                :         381.28907108 Ha       10375.40351869 eV
  | Electrostatic energy          :        -718.50842334 Ha      -19551.60897404 eV
  | Energy correction for multipole
  | error in Hartree potential    :           0.00037672 Ha           0.01025109 eV
  | Sum of eigenvalues per atom                           :        -367.12902903 eV
  | Total energy (T->0) per atom                          :        -652.08504782 eV  <-- do not rely on this value for anything but (periodic) metals
  | Electronic free energy per atom                       :        -652.08522413 eV

  Self-consistency convergence accuracy:
  | Change of charge density      : 0.6397E+00
  | Change of sum of eigenvalues  : 0.5664E+02 eV
  | Change of total energy        : 0.3312E+01 eV

  End self-consistency iteration #     1       :  max(cpu_time)    wall_clock(cpu1)
  | Time for this iteration                    :        2.184 s           2.183 s
  | Charge density update                      :        0.689 s           0.689 s
  | Density mixing                             :        0.003 s           0.003 s
  | Hartree multipole update                   :        0.006 s           0.005 s
  | Hartree multipole summation                :        0.364 s           0.365 s
  | Integration                                :        1.064 s           1.064 s
  | Solution of K.-S. eqns.                    :        0.057 s           0.056 s
  | Total energy evaluation                    :        0.000 s           0.000 s
------------------------------------------------------------

------------------------------------------------------------
          Begin self-consistency iteration #    2

  Date     :  20150727, Time     :  120226.602
------------------------------------------------------------
  Evaluating new KS density.
  Integration grid: deviation in total charge (<rho> - N_e) =  -7.105427E-15
  Pulay mixing of updated and previous charge densities.

  Evaluating partitioned Hartree potential by multipole expansion.
  | Analytical far-field extrapolation by fixed multipoles:
  | Hartree multipole sum: apparent total charge =  -0.429041E-05
  Summing up the Hartree potential.
  Time summed over all CPUs for potential: real work        2.893 s, elapsed        2.906 s
  | RMS charge density error from multipole expansion :   0.697989E-02

  Integrating Hamiltonian matrix: batch-based integration.
  Time summed over all CPUs for integration: real work        8.284 s, elapsed        8.463 s

  Updating Kohn-Sham eigenvalues, eigenvectors, occupation numbers, and Fermi level.
  Solving generalized eigenproblem
  Updating Kohn-Sham eigenvalues and eigenfunctions.
  Solving real generalised eigenvalue problem by standard LAPACK (fast)
  Determining occupation numbers for Kohn-Sham eigenstates.
  | Chemical potential (Fermi level) in eV                 : -.19557560E+01
  | Error in electron count due to remaining E_F inaccuracy: 0.00000000E+00
  | Maximum occupation number of highest empty state:  0.00E+00

  Highest occupied state (VBM) at     -1.95575595 eV
  | Occupation number:      1.00000000

  Lowest unoccupied state (CBM) at    -1.95575595 eV
  | Occupation number:      1.00000000

  Overall HOMO-LUMO gap:      0.00000000 eV.

  Total energy components:
  | Sum of eigenvalues            :        -210.77993211 Ha       -5735.61377740 eV
  | XC energy correction          :         -46.76892345 Ha       -1272.64715856 eV
  | XC potential correction       :          59.79865576 Ha        1627.20421460 eV
  | Free-atom electrostatic energy:        -178.38104972 Ha       -4853.99533147 eV
  | Hartree energy correction     :          -7.14739057 Ha        -194.49039288 eV
  | van der Waals energy corr.    :           0.00000000 Ha           0.00000000 eV
  | Entropy correction            :          -0.00010367 Ha          -0.00282095 eV
  | ---------------------------
  | Total energy                  :        -383.27864008 Ha      -10429.54244572 eV
  | Total energy, T -> 0          :        -383.27874374 Ha      -10429.54526667 eV  <-- do not rely on this value for anything but (periodic) metals
  | Electronic free energy        :        -383.27884741 Ha      -10429.54808762 eV

  Derived energy quantities:
  | Kinetic energy                :         384.17721558 Ha       10453.99392915 eV
  | Electrostatic energy          :        -720.68693220 Ha      -19610.88921631 eV
  | Energy correction for multipole
  | error in Hartree potential    :           0.00059468 Ha           0.01618211 eV
  | Sum of eigenvalues per atom                           :        -358.47586109 eV
  | Total energy (T->0) per atom                          :        -651.84657917 eV  <-- do not rely on this value for anything but (periodic) metals
  | Electronic free energy per atom                       :        -651.84675548 eV

  Self-consistency convergence accuracy:
  | Change of charge density      : 0.4873E+00
  | Change of sum of eigenvalues  : 0.1385E+03 eV
  | Change of total energy        : 0.3815E+01 eV

  End self-consistency iteration #     2       :  max(cpu_time)    wall_clock(cpu1)
  | Time for this iteration                    :        2.176 s           2.176 s
  | Charge density update                      :        0.684 s           0.684 s
  | Density mixing                             :        0.006 s           0.005 s
  | Hartree multipole update                   :        0.005 s           0.005 s
  | Hartree multipole summation                :        0.364 s           0.364 s
  | Integration                                :        1.060 s           1.059 s
  | Solution of K.-S. eqns.                    :        0.056 s           0.057 s
  | Total energy evaluation                    :        0.000 s           0.000 s
------------------------------------------------------------

------------------------------------------------------------
          Begin self-consistency iteration #    3

  Date     :  20150727, Time     :  120228.778
------------------------------------------------------------
  Evaluating new KS density.
  Integration grid: deviation in total charge (<rho> - N_e) =   1.421085E-14
  Pulay mixing of updated and previous charge densities.

  Evaluating partitioned Hartree potential by multipole expansion.
  | Analytical far-field extrapolation by fixed multipoles:
  | Hartree multipole sum: apparent total charge =  -0.448547E-05
  Summing up the Hartree potential.
  Time summed over all CPUs for potential: real work        2.893 s, elapsed        2.906 s
  | RMS charge density error from multipole expansion :   0.137961E-01

  Integrating Hamiltonian matrix: batch-based integration.
  Time summed over all CPUs for integration: real work        8.284 s, elapsed        8.468 s

  Updating Kohn-Sham eigenvalues, eigenvectors, occupation numbers, and Fermi level.
  Solving generalized eigenproblem
  Updating Kohn-Sham eigenvalues and eigenfunctions.
  Solving real generalised eigenvalue problem by standard LAPACK (fast)
  Determining occupation numbers for Kohn-Sham eigenstates.
  | Chemical potential (Fermi level) in eV                 : -.19381202E+01
  | Error in electron count due to remaining E_F inaccuracy: -.42632564E-13
  | Maximum occupation number of highest empty state:  0.00E+00

  Highest occupied state (VBM) at     -7.11259650 eV
  | Occupation number:      2.00000000

  Lowest unoccupied state (CBM) at    -1.93812017 eV
  | Occupation number:      1.00000000

  Overall HOMO-LUMO gap:      5.17447633 eV.

  Total energy components:
  | Sum of eigenvalues            :        -211.18790657 Ha       -5746.71532745 eV
  | XC energy correction          :         -46.75372139 Ha       -1272.23348966 eV
  | XC potential correction       :          59.77004891 Ha        1626.42578251 eV
  | Free-atom electrostatic energy:        -178.38104972 Ha       -4853.99533147 eV
  | Hartree energy correction     :          -6.72541061 Ha        -183.00773402 eV
  | van der Waals energy corr.    :           0.00000000 Ha           0.00000000 eV
  | Entropy correction            :          -0.00010367 Ha          -0.00282095 eV
  | ---------------------------
  | Total energy                  :        -383.27803938 Ha      -10429.52610010 eV
  | Total energy, T -> 0          :        -383.27814305 Ha      -10429.52892105 eV  <-- do not rely on this value for anything but (periodic) metals
  | Electronic free energy        :        -383.27824672 Ha      -10429.53174200 eV

  Derived energy quantities:
  | Kinetic energy                :         382.40820956 Ha       10405.85682634 eV
  | Electrostatic energy          :        -718.93252755 Ha      -19563.14943679 eV
  | Energy correction for multipole
  | error in Hartree potential    :          -0.00346855 Ha          -0.09438412 eV
  | Sum of eigenvalues per atom                           :        -359.16970797 eV
  | Total energy (T->0) per atom                          :        -651.84555757 eV  <-- do not rely on this value for anything but (periodic) metals
  | Electronic free energy per atom                       :        -651.84573387 eV

  Self-consistency convergence accuracy:
  | Change of charge density      : 0.2337E+00
  | Change of sum of eigenvalues  : -.1110E+02 eV
  | Change of total energy        : 0.1635E-01 eV

  End self-consistency iteration #     3       :  max(cpu_time)    wall_clock(cpu1)
  | Time for this iteration                    :        2.172 s           2.172 s
  | Charge density update                      :        0.678 s           0.678 s
  | Density mixing                             :        0.008 s           0.008 s
  | Hartree multipole update                   :        0.005 s           0.005 s
  | Hartree multipole summation                :        0.364 s           0.364 s
  | Integration                                :        1.060 s           1.060 s
  | Solution of K.-S. eqns.                    :        0.057 s           0.057 s
  | Total energy evaluation                    :        0.000 s           0.000 s
------------------------------------------------------------

------------------------------------------------------------
          Begin self-consistency iteration #    4

  Date     :  20150727, Time     :  120230.950
------------------------------------------------------------
  Evaluating new KS density.
  Integration grid: deviation in total charge (<rho> - N_e) =  -4.263256E-14
  Pulay mixing of updated and previous charge densities.

  Evaluating partitioned Hartree potential by multipole expansion.
  | Analytical far-field extrapolation by fixed multipoles:
  | Hartree multipole sum: apparent total charge =  -0.545907E-05
  Summing up the Hartree potential.
  Time summed over all CPUs for potential: real work        2.892 s, elapsed        2.906 s
  | RMS charge density error from multipole expansion :   0.175897E-01

  Integrating Hamiltonian matrix: batch-based integration.
  Time summed over all CPUs for integration: real work        8.279 s, elapsed        8.455 s

  Updating Kohn-Sham eigenvalues, eigenvectors, occupation numbers, and Fermi level.
  Solving generalized eigenproblem
  Updating Kohn-Sham eigenvalues and eigenfunctions.
  Solving real generalised eigenvalue problem by standard LAPACK (fast)
  Determining occupation numbers for Kohn-Sham eigenstates.
  | Chemical potential (Fermi level) in eV                 : -.18028472E+01
  | Error in electron count due to remaining E_F inaccuracy: -.14104273E-10
  | Maximum occupation number of highest empty state:  0.00E+00

  Highest occupied state (VBM) at     -6.21701858 eV
  | Occupation number:      2.00000000

  Lowest unoccupied state (CBM) at    -1.80284724 eV
  | Occupation number:      1.00000000

  Overall HOMO-LUMO gap:      4.41417134 eV.

  Total energy components:
  | Sum of eigenvalues            :        -210.01192911 Ha       -5714.71535259 eV
  | XC energy correction          :         -46.91263609 Ha       -1276.55777849 eV
  | XC potential correction       :          59.97407624 Ha        1631.97764869 eV
  | Free-atom electrostatic energy:        -178.38104972 Ha       -4853.99533147 eV
  | Hartree energy correction     :          -7.94081440 Ha        -216.08055399 eV
  | van der Waals energy corr.    :           0.00000000 Ha           0.00000000 eV
  | Entropy correction            :          -0.00010367 Ha          -0.00282095 eV
  | ---------------------------
  | Total energy                  :        -383.27235308 Ha      -10429.37136786 eV
  | Total energy, T -> 0          :        -383.27245675 Ha      -10429.37418880 eV  <-- do not rely on this value for anything but (periodic) metals
  | Electronic free energy        :        -383.27256042 Ha      -10429.37700975 eV

  Derived energy quantities:
  | Kinetic energy                :         382.51472082 Ha       10408.75514510 eV
  | Electrostatic energy          :        -718.87443781 Ha      -19561.56873446 eV
  | Energy correction for multipole
  | error in Hartree potential    :          -0.00494916 Ha          -0.13467361 eV
  | Sum of eigenvalues per atom                           :        -357.16970954 eV
  | Total energy (T->0) per atom                          :        -651.83588680 eV  <-- do not rely on this value for anything but (periodic) metals
  | Electronic free energy per atom                       :        -651.83606311 eV

  Self-consistency convergence accuracy:
  | Change of charge density      : 0.1127E+00
  | Change of sum of eigenvalues  : 0.3200E+02 eV
  | Change of total energy        : 0.1547E+00 eV

  End self-consistency iteration #     4       :  max(cpu_time)    wall_clock(cpu1)
  | Time for this iteration                    :        2.172 s           2.173 s
  | Charge density update                      :        0.678 s           0.679 s
  | Density mixing                             :        0.009 s           0.008 s
  | Hartree multipole update                   :        0.005 s           0.006 s
  | Hartree multipole summation                :        0.364 s           0.364 s
  | Integration                                :        1.059 s           1.058 s
  | Solution of K.-S. eqns.                    :        0.057 s           0.057 s
  | Total energy evaluation                    :        0.000 s           0.000 s
------------------------------------------------------------

------------------------------------------------------------
          Begin self-consistency iteration #    5

  Date     :  20150727, Time     :  120233.123
------------------------------------------------------------
  Evaluating new KS density.
  Integration grid: deviation in total charge (<rho> - N_e) =  -1.411848E-11
  Pulay mixing of updated and previous charge densities.

  Evaluating partitioned Hartree potential by multipole expansion.
  | Analytical far-field extrapolation by fixed multipoles:
  | Hartree multipole sum: apparent total charge =  -0.546449E-05
  Summing up the Hartree potential.
  Time summed over all CPUs for potential: real work        2.892 s, elapsed        2.905 s
  | RMS charge density error from multipole expansion :   0.180876E-01

  Integrating Hamiltonian matrix: batch-based integration.
  Time summed over all CPUs for integration: real work        8.284 s, elapsed        8.486 s

  Updating Kohn-Sham eigenvalues, eigenvectors, occupation numbers, and Fermi level.
  Solving generalized eigenproblem
  Updating Kohn-Sham eigenvalues and eigenfunctions.
  Solving real generalised eigenvalue problem by standard LAPACK (fast)
  Determining occupation numbers for Kohn-Sham eigenstates.
  | Chemical potential (Fermi level) in eV                 : -.18026562E+01
  | Error in electron count due to remaining E_F inaccuracy: 0.47855053E-10
  | Maximum occupation number of highest empty state:  0.00E+00

  Highest occupied state (VBM) at     -1.80265624 eV
  | Occupation number:      1.00000000

  Lowest unoccupied state (CBM) at    -1.21928645 eV
  | Occupation number:      0.00000000

  Overall HOMO-LUMO gap:      0.58336979 eV.

  Total energy components:
  | Sum of eigenvalues            :        -210.02760939 Ha       -5715.14203471 eV
  | XC energy correction          :         -46.91394455 Ha       -1276.59338350 eV
  | XC potential correction       :          59.97505285 Ha        1632.00422349 eV
  | Free-atom electrostatic energy:        -178.38104972 Ha       -4853.99533147 eV
  | Hartree energy correction     :          -7.92445392 Ha        -215.63536252 eV
  | van der Waals energy corr.    :           0.00000000 Ha           0.00000000 eV
  | Entropy correction            :          -0.00010367 Ha          -0.00282095 eV
  | ---------------------------
  | Total energy                  :        -383.27200473 Ha      -10429.36188871 eV
  | Total energy, T -> 0          :        -383.27210839 Ha      -10429.36470966 eV  <-- do not rely on this value for anything but (periodic) metals
  | Electronic free energy        :        -383.27221206 Ha      -10429.36753060 eV

  Derived energy quantities:
  | Kinetic energy                :         382.44740379 Ha       10406.92335559 eV
  | Electrostatic energy          :        -718.80546397 Ha      -19559.69186080 eV
  | Energy correction for multipole
  | error in Hartree potential    :          -0.00531313 Ha          -0.14457752 eV
  | Sum of eigenvalues per atom                           :        -357.19637717 eV
  | Total energy (T->0) per atom                          :        -651.83529435 eV  <-- do not rely on this value for anything but (periodic) metals
  | Electronic free energy per atom                       :        -651.83547066 eV

  Self-consistency convergence accuracy:
  | Change of charge density      : 0.3101E-01
  | Change of sum of eigenvalues  : -.4267E+00 eV
  | Change of total energy        : 0.9479E-02 eV

  End self-consistency iteration #     5       :  max(cpu_time)    wall_clock(cpu1)
  | Time for this iteration                    :        2.178 s           2.177 s
  | Charge density update                      :        0.679 s           0.678 s
  | Density mixing                             :        0.010 s           0.010 s
  | Hartree multipole update                   :        0.005 s           0.006 s
  | Hartree multipole summation                :        0.364 s           0.364 s
  | Integration                                :        1.063 s           1.062 s
  | Solution of K.-S. eqns.                    :        0.057 s           0.057 s
  | Total energy evaluation                    :        0.000 s           0.000 s
------------------------------------------------------------

------------------------------------------------------------
          Begin self-consistency iteration #    6

  Date     :  20150727, Time     :  120235.300
------------------------------------------------------------
  Evaluating new KS density.
  Integration grid: deviation in total charge (<rho> - N_e) =   4.785505E-11
  Pulay mixing of updated and previous charge densities.

  Evaluating partitioned Hartree potential by multipole expansion.
  | Analytical far-field extrapolation by fixed multipoles:
  | Hartree multipole sum: apparent total charge =  -0.550016E-05
  Summing up the Hartree potential.
  Time summed over all CPUs for potential: real work        2.896 s, elapsed        2.908 s
  | RMS charge density error from multipole expansion :   0.182474E-01

  Integrating Hamiltonian matrix: batch-based integration.
  Time summed over all CPUs for integration: real work        8.285 s, elapsed        8.499 s

  Updating Kohn-Sham eigenvalues, eigenvectors, occupation numbers, and Fermi level.
  Solving generalized eigenproblem
  Updating Kohn-Sham eigenvalues and eigenfunctions.
  Solving real generalised eigenvalue problem by standard LAPACK (fast)
  Determining occupation numbers for Kohn-Sham eigenstates.
  | Chemical potential (Fermi level) in eV                 : -.18060010E+01
  | Error in electron count due to remaining E_F inaccuracy: 0.77827593E-08
  | Maximum occupation number of highest empty state:  0.00E+00

  Highest occupied state (VBM) at     -1.80600097 eV
  | Occupation number:      1.00000001

  Lowest unoccupied state (CBM) at    -1.22789330 eV
  | Occupation number:      0.00000000

  Overall HOMO-LUMO gap:      0.57810768 eV.

  Total energy components:
  | Sum of eigenvalues            :        -210.05330966 Ha       -5715.84137477 eV
  | XC energy correction          :         -46.91199720 Ha       -1276.54039353 eV
  | XC potential correction       :          59.97219294 Ha        1631.92640140 eV
  | Free-atom electrostatic energy:        -178.38104972 Ha       -4853.99533147 eV
  | Hartree energy correction     :          -7.89778687 Ha        -214.90971529 eV
  | van der Waals energy corr.    :           0.00000000 Ha           0.00000000 eV
  | Entropy correction            :          -0.00010367 Ha          -0.00282095 eV
  | ---------------------------
  | Total energy                  :        -383.27195052 Ha      -10429.36041366 eV
  | Total energy, T -> 0          :        -383.27205419 Ha      -10429.36323461 eV  <-- do not rely on this value for anything but (periodic) metals
  | Electronic free energy        :        -383.27215786 Ha      -10429.36605556 eV

  Derived energy quantities:
  | Kinetic energy                :         382.43285258 Ha       10406.52739705 eV
  | Electrostatic energy          :        -718.79280590 Ha      -19559.34741719 eV
  | Energy correction for multipole
  | error in Hartree potential    :          -0.00545392 Ha          -0.14840859 eV
  | Sum of eigenvalues per atom                           :        -357.24008592 eV
  | Total energy (T->0) per atom                          :        -651.83520216 eV  <-- do not rely on this value for anything but (periodic) metals
  | Electronic free energy per atom                       :        -651.83537847 eV

  Self-consistency convergence accuracy:
  | Change of charge density      : 0.1083E-01
  | Change of sum of eigenvalues  : -.6993E+00 eV
  | Change of total energy        : 0.1475E-02 eV

  End self-consistency iteration #     6       :  max(cpu_time)    wall_clock(cpu1)
  | Time for this iteration                    :        2.183 s           2.182 s
  | Charge density update                      :        0.681 s           0.680 s
  | Density mixing                             :        0.011 s           0.011 s
  | Hartree multipole update                   :        0.005 s           0.005 s
  | Hartree multipole summation                :        0.365 s           0.365 s
  | Integration                                :        1.064 s           1.064 s
  | Solution of K.-S. eqns.                    :        0.057 s           0.057 s
  | Total energy evaluation                    :        0.000 s           0.000 s
------------------------------------------------------------

------------------------------------------------------------
          Begin self-consistency iteration #    7

  Date     :  20150727, Time     :  120237.483
------------------------------------------------------------
  Evaluating new KS density.
  Integration grid: deviation in total charge (<rho> - N_e) =   7.782788E-09
  Pulay mixing of updated and previous charge densities.

  Evaluating partitioned Hartree potential by multipole expansion.
  | Analytical far-field extrapolation by fixed multipoles:
  | Hartree multipole sum: apparent total charge =  -0.552003E-05
  Summing up the Hartree potential.
  Time summed over all CPUs for potential: real work        2.892 s, elapsed        2.905 s
  | RMS charge density error from multipole expansion :   0.183202E-01

  Integrating Hamiltonian matrix: batch-based integration.
  Time summed over all CPUs for integration: real work        8.279 s, elapsed        8.506 s

  Updating Kohn-Sham eigenvalues, eigenvectors, occupation numbers, and Fermi level.
  Solving generalized eigenproblem
  Updating Kohn-Sham eigenvalues and eigenfunctions.
  Solving real generalised eigenvalue problem by standard LAPACK (fast)
  Determining occupation numbers for Kohn-Sham eigenstates.
  | Chemical potential (Fermi level) in eV                 : -.18124771E+01
  | Error in electron count due to remaining E_F inaccuracy: 0.12789769E-12
  | Maximum occupation number of highest empty state:  0.00E+00

  Highest occupied state (VBM) at     -1.81247715 eV
  | Occupation number:      1.00000000

  Lowest unoccupied state (CBM) at    -1.23847635 eV
  | Occupation number:      0.00000000

  Overall HOMO-LUMO gap:      0.57400079 eV.

  Total energy components:
  | Sum of eigenvalues            :        -210.07827665 Ha       -5716.52076113 eV
  | XC energy correction          :         -46.90980368 Ha       -1276.48070463 eV
  | XC potential correction       :          59.96906333 Ha        1631.84124030 eV
  | Free-atom electrostatic energy:        -178.38104972 Ha       -4853.99533147 eV
  | Hartree energy correction     :          -7.87186847 Ha        -214.20443957 eV
  | van der Waals energy corr.    :           0.00000000 Ha           0.00000000 eV
  | Entropy correction            :          -0.00010367 Ha          -0.00282095 eV
  | ---------------------------
  | Total energy                  :        -383.27193519 Ha      -10429.35999650 eV
  | Total energy, T -> 0          :        -383.27203886 Ha      -10429.36281745 eV  <-- do not rely on this value for anything but (periodic) metals
  | Electronic free energy        :        -383.27214253 Ha      -10429.36563840 eV

  Derived energy quantities:
  | Kinetic energy                :         382.45817800 Ha       10407.21653669 eV
  | Electrostatic energy          :        -718.82030951 Ha      -19560.09582856 eV
  | Energy correction for multipole
  | error in Hartree potential    :          -0.00556771 Ha          -0.15150519 eV
  | Sum of eigenvalues per atom                           :        -357.28254757 eV
  | Total energy (T->0) per atom                          :        -651.83517609 eV  <-- do not rely on this value for anything but (periodic) metals
  | Electronic free energy per atom                       :        -651.83535240 eV

  Self-consistency convergence accuracy:
  | Change of charge density      : 0.7317E-02
  | Change of sum of eigenvalues  : -.6794E+00 eV
  | Change of total energy        : 0.4172E-03 eV

  End self-consistency iteration #     7       :  max(cpu_time)    wall_clock(cpu1)
  | Time for this iteration                    :        2.185 s           2.184 s
  | Charge density update                      :        0.680 s           0.680 s
  | Density mixing                             :        0.013 s           0.013 s
  | Hartree multipole update                   :        0.005 s           0.005 s
  | Hartree multipole summation                :        0.364 s           0.364 s
  | Integration                                :        1.066 s           1.065 s
  | Solution of K.-S. eqns.                    :        0.056 s           0.057 s
  | Total energy evaluation                    :        0.001 s           0.000 s
------------------------------------------------------------

------------------------------------------------------------
          Begin self-consistency iteration #    8

  Date     :  20150727, Time     :  120239.667
------------------------------------------------------------
  Evaluating new KS density.
  Integration grid: deviation in total charge (<rho> - N_e) =   1.207923E-13
  Pulay mixing of updated and previous charge densities.

  Evaluating partitioned Hartree potential by multipole expansion.
  | Analytical far-field extrapolation by fixed multipoles:
  | Hartree multipole sum: apparent total charge =  -0.555956E-05
  Summing up the Hartree potential.
  Time summed over all CPUs for potential: real work        2.892 s, elapsed        2.906 s
  | RMS charge density error from multipole expansion :   0.184293E-01

  Integrating Hamiltonian matrix: batch-based integration.
  Time summed over all CPUs for integration: real work        8.279 s, elapsed        8.475 s

  Updating Kohn-Sham eigenvalues, eigenvectors, occupation numbers, and Fermi level.
  Solving generalized eigenproblem
  Updating Kohn-Sham eigenvalues and eigenfunctions.
  Solving real generalised eigenvalue problem by standard LAPACK (fast)
  Determining occupation numbers for Kohn-Sham eigenstates.
  | Chemical potential (Fermi level) in eV                 : -.18208742E+01
  | Error in electron count due to remaining E_F inaccuracy: 0.34796699E-09
  | Maximum occupation number of highest empty state:  0.00E+00

  Highest occupied state (VBM) at     -1.82087419 eV
  | Occupation number:      1.00000000

  Lowest unoccupied state (CBM) at    -1.24421970 eV
  | Occupation number:      0.00000000

  Overall HOMO-LUMO gap:      0.57665450 eV.

  Total energy components:
  | Sum of eigenvalues            :        -210.11198054 Ha       -5717.43789053 eV
  | XC energy correction          :         -46.90812427 Ha       -1276.43500559 eV
  | XC potential correction       :          59.96659365 Ha        1631.77403708 eV
  | Free-atom electrostatic energy:        -178.38104972 Ha       -4853.99533147 eV
  | Hartree energy correction     :          -7.83736897 Ha        -213.26566052 eV
  | van der Waals energy corr.    :           0.00000000 Ha           0.00000000 eV
  | Entropy correction            :          -0.00010367 Ha          -0.00282095 eV
  | ---------------------------
  | Total energy                  :        -383.27192984 Ha      -10429.35985104 eV
  | Total energy, T -> 0          :        -383.27203351 Ha      -10429.36267198 eV  <-- do not rely on this value for anything but (periodic) metals
  | Electronic free energy        :        -383.27213718 Ha      -10429.36549293 eV

  Derived energy quantities:
  | Kinetic energy                :         382.47452887 Ha       10407.66146646 eV
  | Electrostatic energy          :        -718.83833444 Ha      -19560.58631191 eV
  | Energy correction for multipole
  | error in Hartree potential    :          -0.00572613 Ha          -0.15581603 eV
  | Sum of eigenvalues per atom                           :        -357.33986816 eV
  | Total energy (T->0) per atom                          :        -651.83516700 eV  <-- do not rely on this value for anything but (periodic) metals
  | Electronic free energy per atom                       :        -651.83534331 eV

  Self-consistency convergence accuracy:
  | Change of charge density      : 0.4286E-02
  | Change of sum of eigenvalues  : -.9171E+00 eV
  | Change of total energy        : 0.1455E-03 eV

  End self-consistency iteration #     8       :  max(cpu_time)    wall_clock(cpu1)
  | Time for this iteration                    :        2.182 s           2.182 s
  | Charge density update                      :        0.680 s           0.680 s
  | Density mixing                             :        0.014 s           0.015 s
  | Hartree multipole update                   :        0.005 s           0.005 s
  | Hartree multipole summation                :        0.364 s           0.364 s
  | Integration                                :        1.062 s           1.061 s
  | Solution of K.-S. eqns.                    :        0.057 s           0.057 s
  | Total energy evaluation                    :        0.000 s           0.000 s
------------------------------------------------------------

------------------------------------------------------------
          Begin self-consistency iteration #    9

  Date     :  20150727, Time     :  120241.849
------------------------------------------------------------
  Evaluating new KS density.
  Integration grid: deviation in total charge (<rho> - N_e) =   3.479670E-10
  Pulay mixing of updated and previous charge densities.

  Evaluating partitioned Hartree potential by multipole expansion.
  | Analytical far-field extrapolation by fixed multipoles:
  | Hartree multipole sum: apparent total charge =  -0.555031E-05
  Summing up the Hartree potential.
  Time summed over all CPUs for potential: real work        2.893 s, elapsed        2.906 s
  | RMS charge density error from multipole expansion :   0.184207E-01

  Integrating Hamiltonian matrix: batch-based integration.
  Time summed over all CPUs for integration: real work        8.279 s, elapsed        8.480 s

  Updating Kohn-Sham eigenvalues, eigenvectors, occupation numbers, and Fermi level.
  Solving generalized eigenproblem
  Updating Kohn-Sham eigenvalues and eigenfunctions.
  Solving real generalised eigenvalue problem by standard LAPACK (fast)
  Determining occupation numbers for Kohn-Sham eigenstates.
  | Chemical potential (Fermi level) in eV                 : -.18226319E+01
  | Error in electron count due to remaining E_F inaccuracy: 0.87908347E-10
  | Maximum occupation number of highest empty state:  0.00E+00

  Highest occupied state (VBM) at     -1.82263190 eV
  | Occupation number:      1.00000000

  Lowest unoccupied state (CBM) at    -1.24557249 eV
  | Occupation number:      0.00000000

  Overall HOMO-LUMO gap:      0.57705941 eV.

  Total energy components:
  | Sum of eigenvalues            :        -210.12302769 Ha       -5717.73849888 eV
  | XC energy correction          :         -46.90709253 Ha       -1276.40693067 eV
  | XC potential correction       :          59.96522105 Ha        1631.73668651 eV
  | Free-atom electrostatic energy:        -178.38104972 Ha       -4853.99533147 eV
  | Hartree energy correction     :          -7.82597872 Ha        -212.95571608 eV
[...]
   Van der Waals               : 0.568235E-03 0.249506E-02 0.209065E-03
   ----------------------------------------------------------------
   Total forces(   7)            : 0.334904E+00 0.480331E+00 0.174903E+00
  atom #    8
   Hellmann-Feynman + Multipole  : -.645457E+01 -.703450E+01 0.888703E+01
   Pulay + GGA                   : 0.697440E+01 0.641667E+01 -.577663E+01
   Van der Waals               : -.124011E-02 0.433752E-02 0.378413E-02
   ----------------------------------------------------------------
   Total forces(   8)            : 0.518589E+00 -.613485E+00 0.311419E+01
  atom #    9
   Hellmann-Feynman + Multipole  : -.732738E-01 -.122289E+00 -.880527E-01
   Pulay + GGA                   : 0.456394E-01 0.122181E+00 0.449066E-01
   Van der Waals               : 0.803330E-03 0.421322E-02 0.610947E-02
   ----------------------------------------------------------------
   Total forces(   9)            : -.268310E-01 0.410451E-02 -.370366E-01
  atom #   10
   Hellmann-Feynman + Multipole  : -.324962E+00 0.431992E+00 -.279280E+01
   Pulay + GGA                   : -.405692E-01 0.211714E-01 -.138727E+00
   Van der Waals               : -.202493E-03 0.114249E-02 0.111151E-02
   ----------------------------------------------------------------
   Total forces(  10)            : -.365734E+00 0.454306E+00 -.293042E+01
  atom #   11
   Hellmann-Feynman + Multipole  : 0.470708E+01 -.491066E+01 -.686064E+01
   Pulay + GGA                   : -.602984E+01 0.590836E+01 0.839760E+01
   Van der Waals               : -.188945E-02 -.170728E-03 -.416666E-02
   ----------------------------------------------------------------
   Total forces(  11)            : -.132465E+01 0.997533E+00 0.153280E+01
  atom #   12
   Hellmann-Feynman + Multipole  : -.275634E+00 0.249511E+00 -.160871E+01
   Pulay + GGA                   : 0.177947E-01 -.101868E-01 0.141754E+00
   Van der Waals               : -.544834E-03 0.324906E-03 0.106466E-02
   ----------------------------------------------------------------
   Total forces(  12)            : -.258384E+00 0.239649E+00 -.146589E+01
  atom #   13
   Hellmann-Feynman + Multipole  : 0.132463E+01 -.135506E+01 0.407018E+00
   Pulay + GGA                   : -.111368E+00 0.102368E+00 -.250325E-01
   Van der Waals               : -.130301E-02 0.290041E-03 -.402970E-02
   ----------------------------------------------------------------
   Total forces(  13)            : 0.121196E+01 -.125240E+01 0.377956E+00
  atom #   14
   Hellmann-Feynman + Multipole  : -.226860E+01 -.293380E+01 -.157091E+02
   Pulay + GGA                   : 0.357842E+01 0.349946E+01 0.135420E+02
   Van der Waals               : -.423839E-02 -.477166E-02 -.847027E-02
   ----------------------------------------------------------------
   Total forces(  14)            : 0.130557E+01 0.560887E+00 -.217561E+01
  atom #   15
   Hellmann-Feynman + Multipole  : -.428443E+00 -.257301E+00 0.222434E+00
   Pulay + GGA                   : 0.933256E-01 0.639214E-01 0.544255E-01
   Van der Waals               : -.324828E-02 -.215121E-02 -.583779E-03
   ----------------------------------------------------------------
   Total forces(  15)            : -.338365E+00 -.195531E+00 0.276276E+00
  atom #   16
   Hellmann-Feynman + Multipole  : -.522219E+00 -.214821E+00 0.143593E+01
   Pulay + GGA                   : -.458519E-01 -.221159E-01 0.608640E-01
   Van der Waals               : -.369638E-02 -.361006E-02 -.653499E-02
   ----------------------------------------------------------------
   Total forces(  16)            : -.571768E+00 -.240547E+00 0.149026E+01
  Timings for vdw_correction_hirshfeld (Tkatchenko-Scheffler 2009):
  | CPU time:        5.759 s, Wall clock time:        5.759 s.
  Removing unitary transformations (pure translations, rotations) from forces on atoms.
  Atomic forces before filtering:
  | Net force on center of mass :  0.640941E-02 -.564934E-02 0.617556E-02 eV/A
  | Net torque on center of mass:  0.215642E-01 -.122755E-01 -.340098E-03 eV
  Atomic forces after filtering:
  | Net force on center of mass :  -.892031E-16 0.133805E-15 -.356812E-15 eV/A
  | Net torque on center of mass:  0.302107E-14 0.264344E-14 0.566451E-15 eV
 
  Energy and forces in a compact form:
  | Total energy uncorrected      :         -0.104294503818612E+05 eV
  | Total energy corrected        :         -0.104294532028091E+05 eV  <-- do not rely on this value for anything but (periodic) metals
  | Electronic free energy        :         -0.104294560237570E+05 eV
  Total atomic forces (unitary forces cleaned) [eV/Ang]:
  |   1          0.714815395643287E+00          0.137398794242171E+01         -0.155399227558028E+01
  |   2          0.278113516131725E+00         -0.603065352558995E+00          0.168164723210407E+00
  |   3         -0.877087795688086E+00         -0.311979368266437E+00          0.585649813468588E-01
  |   4         -0.727508509895936E-01         -0.207578877037253E+00          0.123268603499540E+01
  |   5         -0.615672553314308E+00         -0.216469842188653E+01         -0.154744309316681E+01
  |   6          0.905166132364937E-01          0.147418751479077E+01          0.129048117332715E+01
  |   7          0.334543517431154E+00          0.481060884417476E+00          0.175261710068715E+00
  |   8          0.517927998269619E+00         -0.613671003248997E+00          0.311379030219366E+01
  |   9         -0.274082772717248E-01          0.398625764784666E-02         -0.377002851242568E-01
  |  10         -0.366501803197142E+00          0.453894048804124E+00         -0.293083891552373E+01
  |  11         -0.132475254080772E+01          0.998430685131877E+00          0.153225767844808E+01
  |  12         -0.258363823654587E+00          0.240800880326279E+00         -0.146643028447470E+01
  |  13          0.121187655643598E+01         -0.125150461367837E+01          0.377317793693638E+00
  |  14          0.130529502076663E+01          0.561248500895099E+00         -0.217659313327734E+01
  |  15         -0.338577383384602E+00         -0.195121603774412E+00          0.275061280334674E+00
  |  16         -0.571973589607126E+00         -0.239977473984187E+00          0.148941230952854E+01
 
  ------------------------------------ 
  Start decomposition of the XC Energy 
  ------------------------------------ 
  Hartree-Fock part   :          0.000000000 Ha              0.000000000 eV
  ------------------------------------ 
  X Energy            :        -45.244821545 Ha          -1231.174235704 eV
  C Energy GGA        :         -1.662196108 Ha            -45.230657404 eV
  Total XC Energy     :        -46.907017653 Ha          -1276.404893107 eV
  LDA X and C from self-consistent density 
  X Energy LDA        :        -40.794338247 Ha          -1110.070423451 eV
  C Energy LDA        :         -3.340968259 Ha            -90.912371889 eV
  ------------------------------------ 
  End decomposition of the XC Energy 
  ------------------------------------ 
  Performing Hirshfeld analysis of fragment charges and moments.
  ----------------------------------------------------------------------
  | Atom     1: O
  |   Hirshfeld charge        :     -0.12871279
  |   Free atom volume        :     23.95238533
  |   Hirshfeld volume        :     21.54474759
  |   Hirshfeld dipole vector :      0.00182287       0.02834468       0.03014321
  |   Hirshfeld dipole moment :      0.04141687
  |   Hirshfeld second moments:      0.09306222      -0.00273828      -0.00229209
  |                                 -0.00273828       0.04443252      -0.02411011
  |                                 -0.00229209      -0.02411011       0.05657246
  ----------------------------------------------------------------------
  | Atom     2: H
  |   Hirshfeld charge        :      0.11093626
  |   Free atom volume        :     10.44207651
  |   Hirshfeld volume        :      9.85110501
  |   Hirshfeld dipole vector :     -0.00611582       0.01017627       0.00187393
  |   Hirshfeld dipole moment :      0.01201962
  |   Hirshfeld second moments:      0.04039577       0.01802498       0.00478578
  |                                  0.01802498       0.02569640       0.00912207
  |                                  0.00478578       0.00912207       0.05652413
  ----------------------------------------------------------------------
  | Atom     3: H
  |   Hirshfeld charge        :      0.14448023
  |   Free atom volume        :     10.44207651
  |   Hirshfeld volume        :     10.46748344
  |   Hirshfeld dipole vector :      0.04856123       0.01253970       0.01714727
  |   Hirshfeld dipole moment :      0.05300440
  |   Hirshfeld second moments:      0.02525144      -0.01553024       0.00493547
  |                                 -0.01553024       0.04431249       0.00251231
  |                                  0.00493547       0.00251231       0.05254713
  ----------------------------------------------------------------------
  | Atom     4: H
  |   Hirshfeld charge        :      0.10856529
  |   Free atom volume        :     10.44207651
  |   Hirshfeld volume        :      9.31026209
  |   Hirshfeld dipole vector :     -0.01117464       0.00244487       0.01681461
  |   Hirshfeld dipole moment :      0.02033669
  |   Hirshfeld second moments:      0.06779995       0.00944574       0.01203252
  |                                  0.00944574       0.06424844       0.00330581
  |                                  0.01203252       0.00330581       0.01978921
  ----------------------------------------------------------------------
  | Atom     5: O
  |   Hirshfeld charge        :     -0.24017040
  |   Free atom volume        :     23.95238533
  |   Hirshfeld volume        :     22.15708043
  |   Hirshfeld dipole vector :     -0.01830296       0.02292036      -0.00334342
  |   Hirshfeld dipole moment :      0.02952151
  |   Hirshfeld second moments:      0.02718356       0.05026491      -0.01275848
  |                                  0.05026491       0.02456645       0.00983909
  |                                 -0.01275848       0.00983909       0.04872918
  ----------------------------------------------------------------------
  | Atom     6: H
  |   Hirshfeld charge        :      0.08596782
  |   Free atom volume        :     10.44207651
  |   Hirshfeld volume        :      9.77781619
  |   Hirshfeld dipole vector :      0.01942728       0.02888484       0.02098985
  |   Hirshfeld dipole moment :      0.04064882
  |   Hirshfeld second moments:      0.04482440       0.01074093      -0.00711525
  |                                  0.01074093       0.02404348      -0.01523810
  |                                 -0.00711525      -0.01523810       0.05019674
  ----------------------------------------------------------------------
  | Atom     7: H
  |   Hirshfeld charge        :      0.12053349
  |   Free atom volume        :     10.44207651
  |   Hirshfeld volume        :     10.54389749
  |   Hirshfeld dipole vector :     -0.05934549      -0.04463831       0.01304085
  |   Hirshfeld dipole moment :      0.07539582
  |   Hirshfeld second moments:      0.02493347       0.01629717       0.00436323
  |                                  0.01629717       0.04159021       0.00788604
  |                                  0.00436323       0.00788604       0.05229724
  ----------------------------------------------------------------------
  | Atom     8: O
  |   Hirshfeld charge        :     -0.21265624
  |   Free atom volume        :     23.95238533
  |   Hirshfeld volume        :     22.87354916
  |   Hirshfeld dipole vector :      0.03758213      -0.00331128      -0.02153958
  |   Hirshfeld dipole moment :      0.04344346
  |   Hirshfeld second moments:     -0.01755070       0.00447062       0.04354521
  |                                  0.00447062       0.05172077       0.00445172
  |                                  0.04354521       0.00445172       0.04685561
  ----------------------------------------------------------------------
  | Atom     9: H
  |   Hirshfeld charge        :      0.10148307
  |   Free atom volume        :     10.44207651
  |   Hirshfeld volume        :     12.24716670
  |   Hirshfeld dipole vector :      0.03017858       0.02901140       0.01986862
  |   Hirshfeld dipole moment :      0.04633757
  |   Hirshfeld second moments:     -0.01630661      -0.00973213       0.02818527
  |                                 -0.00973213       0.00617329      -0.01024637
  |                                  0.02818527      -0.01024637       0.02083928
  ----------------------------------------------------------------------
  | Atom    10: H
  |   Hirshfeld charge        :      0.10566568
  |   Free atom volume        :     10.44207651
  |   Hirshfeld volume        :     12.03597347
  |   Hirshfeld dipole vector :     -0.01226012      -0.00321998      -0.06038293
  |   Hirshfeld dipole moment :      0.06169908
  |   Hirshfeld second moments:     -0.00245012       0.00362233       0.02195639
  |                                  0.00362233       0.03290186       0.00874061
  |                                  0.02195639       0.00874061       0.01114705
  ----------------------------------------------------------------------
  | Atom    11: O
  |   Hirshfeld charge        :     -0.19475055
  |   Free atom volume        :     23.95238533
  |   Hirshfeld volume        :     22.01398661
  |   Hirshfeld dipole vector :      0.01268591      -0.00330484      -0.01346315
  |   Hirshfeld dipole moment :      0.01879124
  |   Hirshfeld second moments:      0.02928562      -0.01542104       0.00895360
  |                                 -0.01542104       0.03868412      -0.00631837
  |                                  0.00895360      -0.00631837       0.05646666
  ----------------------------------------------------------------------
  | Atom    12: H
  |   Hirshfeld charge        :      0.09862609
  |   Free atom volume        :     10.44207651
  |   Hirshfeld volume        :     11.41492986
  |   Hirshfeld dipole vector :      0.02575335      -0.01644175       0.04492423
  |   Hirshfeld dipole moment :      0.05433003
  |   Hirshfeld second moments:      0.02021403      -0.00692635       0.00813721
  |                                 -0.00692635       0.02573033      -0.00496111
  |                                  0.00813721      -0.00496111       0.01198208
  ----------------------------------------------------------------------
  | Atom    13: H
  |   Hirshfeld charge        :      0.08549596
  |   Free atom volume        :     10.44207651
  |   Hirshfeld volume        :     12.37654620
  |   Hirshfeld dipole vector :     -0.00877610       0.02383990      -0.01754008
  |   Hirshfeld dipole moment :      0.03087094
  |   Hirshfeld second moments:     -0.01785997       0.01001277      -0.00256077
  |                                  0.01001277      -0.00275835       0.00261059
  |                                 -0.00256077       0.00261059       0.01403285
  ----------------------------------------------------------------------
  | Atom    14: O
  |   Hirshfeld charge        :     -0.35732206
  |   Free atom volume        :     23.95238533
  |   Hirshfeld volume        :     24.15903291
  |   Hirshfeld dipole vector :      0.01462160       0.01292836       0.07994688
  |   Hirshfeld dipole moment :      0.08229482
  |   Hirshfeld second moments:      0.00191772       0.06554637      -0.00938601
  |                                  0.06554637      -0.05292081      -0.00033926
  |                                 -0.00938601      -0.00033926      -0.05620192
  ----------------------------------------------------------------------
  | Atom    15: H
  |   Hirshfeld charge        :      0.11318960
  |   Free atom volume        :     10.44207651
  |   Hirshfeld volume        :      9.00681522
  |   Hirshfeld dipole vector :      0.09238777       0.05994697       0.03614510
  |   Hirshfeld dipole moment :      0.11591207
  |   Hirshfeld second moments:      0.07492653       0.02060633      -0.01251992
  |                                  0.02060633       0.05625315      -0.00997716
  |                                 -0.01251992      -0.00997716       0.05879466
  ----------------------------------------------------------------------
  | Atom    16: H
  |   Hirshfeld charge        :      0.05866687
  |   Free atom volume        :     10.44207651
  |   Hirshfeld volume        :      9.81168932
  |   Hirshfeld dipole vector :     -0.02429814      -0.01990181       0.04065572
  |   Hirshfeld dipole moment :      0.05137479
  |   Hirshfeld second moments:      0.03935984       0.01421089       0.02350899
  |                                  0.01421089       0.03462410       0.01259672
  |                                  0.02350899       0.01259672       0.02369185
  ----------------------------------------------------------------------


------------------------------------------------------------------------------
  Final output of selected total energy values:

  The following output summarizes some interesting total energy values
  at the end of a run (AFTER all relaxation, molecular dynamics, etc.).

  | Total energy of the DFT / Hartree-Fock s.c.f. calculation      :         -10429.450381861 eV
  | Final zero-broadening corrected energy (caution - metals only) :         -10429.453202809 eV
  | For reference only, the value of 1 Hartree used in FHI-aims is :             27.211384500 eV

  Before relying on these values, please be sure to understand exactly which
  total energy value is referred to by a given number. Different objects may
  all carry the same name 'total energy'. Definitions:

  Total energy of the DFT / Hartree-Fock s.c.f. calculation:
  | Note that this energy does not include ANY quantities calculated after the
  | s.c.f. cycle, in particular not ANY RPA, MP2, etc. many-body perturbation terms.

  Final zero-broadening corrected energy:
  | For metallic systems only, a broadening of the occupation numbers at the Fermi
  | level can be extrapolated back to zero broadening by an electron-gas inspired
  | formula. For all systems that are not real metals, this value can be
  | meaningless and should be avoided.

------------------------------------------------------------------------------

------------------------------------------------------------
          Leaving FHI-aims.
          Date     :  20150727, Time     :  120309.447

          Computational steps:
          | Number of self-consistency cycles          :           17

          Detailed time accounting                     :  max(cpu_time)    wall_clock(cpu1)
          | Total time                                 :       47.795 s          47.824 s
          | Preparation time                           :        0.173 s           0.534 s
          | Grid partitioning                          :        0.147 s           0.146 s
          | Preloading free-atom quantities on grid    :        0.014 s           0.014 s
          | Free-atom superposition energy             :        0.074 s           0.073 s
          | Total time for integrations                :       19.686 s          19.684 s
          | Total time for solution of K.-S. equations :        1.175 s           1.176 s
          | Total time for density & force components  :       17.499 s          17.498 s
          | Total time for mixing                      :        0.236 s           0.236 s
          | Total time for Hartree multipole update    :        0.087 s           0.088 s
          | Total time for Hartree multipole sum       :        8.035 s           8.036 s
          | Total time for total energy evaluation     :        0.003 s           0.005 s
          | Total time for scaled ZORA corrections     :        0.000 s           0.000 s
          | Total time for TS (2009) vdW correction    :        0.058 s           0.058 s

          Have a nice day.
------------------------------------------------------------
