  MPI-parallelism will be employed.
------------------------------------------------------------
          Invoking FHI-aims ...
          Version 081213
          Compiled on 2013/08/29 at 17:41:06 on host generoso.

          When using FHI-aims, please cite the following reference:

          Volker Blum, Ralf Gehrke, Felix Hanke, Paula Havu,
          Ville Havu, Xinguo Ren, Karsten Reuter, and Matthias Scheffler,
          'Ab Initio Molecular Simulations with Numeric Atom-Centered Orbitals: FHI-aims',
          Computer Physics Communications 180, 2175-2196 (2009)

          For any questions about FHI-aims, please visit the aimsclub website
          with its forums and wiki. Contributions to both the forums and the
          wiki are warmly encouraged - they are for you, and everyone is welcome there.

------------------------------------------------------------

  Date     :  20150727, Time     :  115635.456
  Time zero on CPU 1             :   0.369940000000000E-01  s.
  Internal wall clock time zero  :           207230195.456  s.

  Using        8 parallel tasks.
  Task        0 on host gen59 reporting.
  Task        1 on host gen59 reporting.
  Task        2 on host gen59 reporting.
  Task        3 on host gen59 reporting.
  Task        4 on host gen59 reporting.
  Task        5 on host gen59 reporting.
  Task        6 on host gen59 reporting.
  Task        7 on host gen59 reporting.

  Performing system and environment tests:
  | Environment variable OMP_NUM_THREADS correctly set to 1.
  | Checking for scalapack...
  | No scalapack compiled in.

  Obtaining array dimensions for all initial allocations:
  
  -----------------------------------------------------------------------
  Parsing control.in (first pass over file, find array dimensions only).
  The contents of control.in will be repeated verbatim below
  unless switched off by setting 'verbatim_writeout .false.' .
  in the first line of control.in .
  -----------------------------------------------------------------------
  
  #########################################################################################
  #
  #  Volker Blum, FHI 2008 : Test run input file control.in
  #
  #########################################################################################
  #
  #  Physical model
  #
    xc                 rpbe
    spin               none
    relativistic       atomic_zora scalar
    charge             0.
   vdw_correction_hirshfeld
  #
  #  SCF convergence
  #
    occupation_type    gaussian 0.01
    mixer              pulay
      n_max_pulay        10
      charge_mix_param   0.1
    sc_accuracy_rho    5E-5
    sc_accuracy_eev    5E-3
    sc_accuracy_etot   5E-6
    sc_iter_limit      3000
  #
  #  Eigenvalue solver
  #
    KS_method          lapack
      empty_states       8
      basis_threshold    0.e-5
  #
  #  Efficiency
  #
  #   all previous settings are now default, except stratmann still
  #   undecided. Continue to handle stratmann with care, if at all.
  #
  #  partition_type stratmann
    partition_type rho_r2
  #  hartree_partition_type stratmann
  #
  #  Oprions for large clusters (100's of atoms: memory saving / better scaling)
  #
  # for periodic systems:
  #
    density_update_method orbital
    packed_matrix_format none
  #  k_grid 6 6 6
  #  output k_eigenvalue 1
  #  distributed_spline_storage .true.
  #
  #  Relaxation
  #
  #  relax_geometry   bfgs 5.e-3
    sc_accuracy_forces 5.E-4
    final_forces_cleaned .true.
  #
  #  Output options
  #
  #  output mulliken
    output Hirshfeld
  #  output dipole
  
  #harmonic_length_scale 0.001
  
  ################################################################################
  #
  #  FHI-aims code project
  #  VB, Fritz-Haber Institut, 2007
  #
  #  Suggested "safe" defaults for H atom (to be pasted into control.in file)
  #  Basis constructed for a non-relativistic H2 molecule using the
  #  PW-LDA functional.
  #
  ################################################################################
    species        H
  #     global species definitions
      nucleus             1
      cut_pot             4.0  2.0  1.0
      cut_free_atom       finite 8.0
      logarithmic         0.00010000 100.00  1.0123
      basis_dep_cutoff    1d-4  # 1d-4 is safe default - please check 5d-4 if you wish!
      radial_base         24 7.0
      radial_multiplier   2
      angular_grids       specified
        division   0.2783  110
        division   0.3822  194
        division   0.5626  302
  #      division   0.5922  434
  #      division   0.6227  590
  #      division   0.7206  770
        outer_grid  302
      l_hartree           4
  ################################################################################
  #
  #  Definition of "minimal" basis
  #
  ################################################################################
  #     valence basis states
      valence      1  s   1.
  #     ion occupancy
      ion_occ      1  s   0.5
  ################################################################################
  #
  #  Suggested additional basis functions. For production calculations,
  #  uncomment them one after another (the most important basis functions are
  #  listed first).
  #
  ################################################################################
  #  "First tier" - improvements: -1014.90 meV to -62.69 meV
       hydro 2 s 2.1
       hydro 2 p 3.5
  #  "Second tier" - improvements: -12.89 meV to -1.83 meV
       hydro 1 s 0.85
       hydro 2 p 3.7
       hydro 2 s 1.2
       hydro 3 d 7
  #  "Third tier" - improvements: -0.25 meV to -0.12 meV
  #     hydro 4 f 11.2
  #     hydro 3 p 4.8
  #     hydro 4 d 9
  #     hydro 3 s 3.2
  
  ################################################################################
  #
  #  FHI-aims code project
  #  VB, Fritz-Haber Institut, 2007
  #
  #  Suggested "safe" defaults for O atom (to be pasted into control.in file)
  #  All values have been tested for a non-relativistic, non-spinpolarized O2
  #  molecule using the PW-LDA functional. Validity for PBE is expected.
  #
  #  Constructed for dimers: 1.0 A, 1.208 A, 1.5 A, 2.0 A, 3.0 A
  #
  ################################################################################
    species        O
  #     global species definitions
      nucleus             8
      mass                15.9994
      l_hartree           4
      cut_pot             4.0  2.0  1.0
      cut_free_atom       finite 8.0
      basis_dep_cutoff    1d-4  # 1d-4 is safe default - please check 5d-4 if you wish!
      logarithmic         0.00010000 100.00  1.0123
      radial_base         36 7.0
      radial_multiplier   2
       angular_grids specified
        division   0.4087  110
        division   0.5181  194
        division   0.6184  302
  #      division   0.7315  434
  #      division   0.7934  590
  #      division   0.9656  770
  #      division   1.4041  974
  #      outer_grid 974
        outer_grid 302
  ################################################################################
  #
  #  Definition of "minimal" basis
  #
  ################################################################################
  #     valence basis states
      valence      2  s   2.
      valence      2  p   4.
  #     ion occupancy
      ion_occ      2  s   1.
      ion_occ      2  p   3.
  ################################################################################
  #
  #  Suggested additional basis functions. For production calculations,
  #  uncomment them one after another (the most important basis functions are
  #  listed first).
  #
  ################################################################################
  #  "First tier" - improvements: -699.05 meV to -159.38 meV
       hydro 2 p 1.8
       hydro 3 d 7.6
       hydro 3 s 6.4
  #  "Second tier" - improvements: -49.91 meV to -5.39 meV
       hydro 4 f 11.6
       hydro 3 p 6.2
       hydro 3 d 5.6
       hydro 5 g 17.6
       hydro 1 s 0.75
  #  "Third tier" - improvements: -2.83 meV to -0.50 meV
  #     ionic 2 p auto
  #     hydro 4 f 10.8
  #     hydro 4 d 4.7
  #     hydro 2 s 6.8
  #  "Fourth tier" - improvements: -0.40 meV to -0.12 meV
  #     hydro 3 p 5
  #     hydro 3 s 3.3
  #     hydro 5 g 15.6
  #     hydro 4 f 17.6
  #     hydro 4 d 14
  # Further basis functions - -0.08 meV and below
  #     hydro 3 s 2.1
  #     hydro 4 d 11.6
  #     hydro 3 p 16
  #     hydro 2 s 17.2
  
  
  -----------------------------------------------------------------------
  Completed first pass over input file control.in .
  -----------------------------------------------------------------------
  
  
  -----------------------------------------------------------------------
  Parsing geometry.in (first pass over file, find array dimensions only).
  The contents of geometry.in will be repeated verbatim below
  unless switched off by setting 'verbatim_writeout .false.' .
  in the first line of geometry.in .
  -----------------------------------------------------------------------
  
  atom      -4.053030000      0.065001000     -1.525160000  O
  atom      -4.566710000      0.974813000     -1.912820000  H
  atom      -3.067820000      0.330172000     -1.477310000  H
  atom      -4.370360000     -0.049164000     -0.572274000  H
  atom      -4.581760000     -0.256435000      0.939478000  O
  atom      -4.349860000      0.471090000      1.504340000  H
  atom      -5.393870000     -0.726611000      1.228070000  H
  atom      -5.293160000      2.192130000     -2.328800000  O
  atom      -4.829300000      2.988660000     -1.973850000  H
  atom      -5.428570000      2.328640000     -3.235170000  H
  atom      -1.645860000      0.870179000     -1.502250000  O
  atom      -1.568890000      1.501730000     -0.721051000  H
  atom      -0.824432000      0.282220000     -1.377720000  H
  atom      -4.066610000      4.258280000     -0.900064000  O
  atom      -3.224110000      3.876870000     -0.569443000  H
  atom      -3.737450000      5.116530000     -1.322720000  H
  
  -----------------------------------------------------------------------
  Completed first pass over input file geometry.in .
  -----------------------------------------------------------------------
  
 
  Basic array size parameters: 
  | Number of species                 :        2
  | Number of atoms                   :       16
  | Max. basis fn. angular momentum   :        4
  | Max. atomic/ionic basis occupied n:        2
  | Max. number of basis fn. types    :        2
  | Max. radial fns per species/type  :        8
  | Max. logarithmic grid size        :     1301
  | Max. radial integration grid size :       73
  | Max. angular integration grid size:      302
  | Max. angular grid division number :        8
  | Radial grid for Hartree potential :     1301
  | Number of spin channels           :        1

------------------------------------------------------------
          Reading file control.in.
------------------------------------------------------------
  XC: Using RPBE gradient-corrected functionals.
  Spin treatment: No spin polarisation.
  Scalar relativistic treatment of kinetic energy: on-site free-atom approximation to ZORA.
  Charge =   0.000000E+00: Neutral system requested explicitly.
  Using non-empirical van der Waals correction (Hirshfeld partitioning):
  Occupation type: Gaussian broadening, width =   0.100000E-01 eV.
  Using pulay charge density mixing.
  Pulay mixing - number of memorized iterations:   10
  Charge density mixing - mixing parameter:     0.1000
  Convergence accuracy of self-consistent charge density: 0.5000E-04
  Convergence accuracy of sum of eigenvalues: 0.5000E-02
  Convergence accuracy of total energy: 0.5000E-05
  Maximum number of s.-c. iterations  :  3000
  Kohn-Sham eigenvalues and eigenfunctions calculated by lapack diagonalisation (D&C).
  Number of empty states per atom:        8
  Threshold for basis singularities: 0.0000E+00
  Partition function in integrals calculations: rho / r^2
 Using packed matrix format           0
  Convergence accuracy of forces: 0.5000E-03
  Cleaning forces before final output.
  Hirshfeld charge analysis will be performed.
 
  Reading configuration options for species H                   .
  | Found nuclear charge :   1.0000
  | Found cutoff potl. onset [A], width [A], scale factor :    4.00000    2.00000    1.00000
  | Found cutoff specification for free atom: Cutoff potential begins at    8.00000 A.
  | Found logarithmic grid data [bohr] : 0.1000E-03 0.1000E+03 0.1012E+01
  | Threshold for basis-dependent cutoff potential is   0.100000E-03
  | Found data for basic radial integration grid :    24 points, outermost radius =    7.000 A
  | Found multiplier for basic radial grid :   2
  | Found angular grid specification: user-specified.
  | Specified grid contains     4 separate shells.
  | Check grid settings after all constraints further below.
  | Found l_max for Hartree potential  :   4
  | Found free-atom valence shell :  1 s   1.000
  | No ionic wave fns used. Skipping ion_occ.
  | Found hydrogenic basis function :  2 s   2.100
  | Found hydrogenic basis function :  2 p   3.500
  | Found hydrogenic basis function :  1 s   0.850
  | Found hydrogenic basis function :  2 p   3.700
  | Found hydrogenic basis function :  2 s   1.200
  | Found hydrogenic basis function :  3 d   7.000
  Species H                   : Missing cutoff potential type.
  Defaulting to exp(1/x)/(1-x)^2 type cutoff potential.
  Species H : On-site basis accuracy parameter (for Gram-Schmidt orthonormalisation) not specified.
  Using default value basis_acc =  0.1000000E-03.
  Species H                   : Using default innermost maximum threshold i_radial=  2 for radial functions.
  Species H                   : Basic radial grid will be enhanced according to radial_multiplier =   2, to contain    49 grid points.
 
  Reading configuration options for species O                   .
  | Found nuclear charge :   8.0000
  | Found atomic mass :    15.9994000000000      amu
  | Found l_max for Hartree potential  :   4
  | Found cutoff potl. onset [A], width [A], scale factor :    4.00000    2.00000    1.00000
  | Found cutoff specification for free atom: Cutoff potential begins at    8.00000 A.
  | Threshold for basis-dependent cutoff potential is   0.100000E-03
  | Found logarithmic grid data [bohr] : 0.1000E-03 0.1000E+03 0.1012E+01
  | Found data for basic radial integration grid :    36 points, outermost radius =    7.000 A
  | Found multiplier for basic radial grid :   2
  | Found angular grid specification: user-specified.
  | Specified grid contains     4 separate shells.
  | Check grid settings after all constraints further below.
  | Found free-atom valence shell :  2 s   2.000
  | Found free-atom valence shell :  2 p   4.000
  | No ionic wave fns used. Skipping ion_occ.
  | No ionic wave fns used. Skipping ion_occ.
  | Found hydrogenic basis function :  2 p   1.800
  | Found hydrogenic basis function :  3 d   7.600
  | Found hydrogenic basis function :  3 s   6.400
  | Found hydrogenic basis function :  4 f  11.600
  | Found hydrogenic basis function :  3 p   6.200
  | Found hydrogenic basis function :  3 d   5.600
  | Found hydrogenic basis function :  5 g  17.600
  | Found hydrogenic basis function :  1 s   0.750
  Species O                   : Missing cutoff potential type.
  Defaulting to exp(1/x)/(1-x)^2 type cutoff potential.
  Species O : On-site basis accuracy parameter (for Gram-Schmidt orthonormalisation) not specified.
  Using default value basis_acc =  0.1000000E-03.
  Species O                   : Using default innermost maximum threshold i_radial=  2 for radial functions.
  Species O                   : Basic radial grid will be enhanced according to radial_multiplier =   2, to contain    73 grid points.
 
  Finished reading input file 'control.in'. Consistency checks are next.
 
  Target number of points in a grid batch is not set. Defaulting to  100
  Method for grid partitioning is not set. Defaulting to parallel hash+maxmin partitioning.
  Batch size limit is not set. Defaulting to    200
  By default, will store active basis functions for each batch.
  If in need of memory, prune_basis_once .false. can be used to disable this option.
  communication_type for Hartree potential was not specified.
  Defaulting to calc_hartree .
  Pulay mixer: Number of initial linear mixing iterations not set.
  Defaulting to    0 iterations.
  Work space size for distributed Hartree potential not set.
  Defaulting to   0.200000E+03 MB.
  Algorithm-dependent basis array size parameters:
  | n_max_pulay                         :       10
  Geometry relaxation not requested: no relaxation will be performed.
  Handling of forces: Unphysical translation and rotation will be removed from forces.
  No accuracy limit for integral partition fn. given. Defaulting to 0.1000E-14.
  No threshold value for u(r) in integrations given. Defaulting to 0.1000E-05.
  No accuracy for occupation numbers given. Defaulting to 0.1000E-07.
  No threshold value for occupation numbers given. Defaulting to 0.0000E+00.
  No accuracy for fermi level given. Defaulting to 0.1000E-19.
  Maximum # of iterations to find E_F not set. Defaulting to  200.
  Will not use alltoall communication since running on < 1024 CPUs.
  Partitioning for Hartree potential was not defined. Using partition_type for integrals.
  | Reporting present value of keyword multip_moments_threshold  :       0.10000000E-09
  | This value may affect high angular momentum components of the Hartree potential in periodic systems.
  No q(lm)/r^(l+1) cutoff set for long-range Hartree potential.
  | Using default value of  0.100000E-09 .
  | Verify using the multipole_threshold keyword.
  Defaulting to new monopole extrapolation.
  Density update method: Loop over occupied states selected for charge density update.
------------------------------------------------------------


------------------------------------------------------------
          Reading geometry description geometry.in.
------------------------------------------------------------
  Input structure read successfully.
  The structure contains       16 atoms,  and a total of         51.000 electrons.

  Input geometry:
  | No unit cell requested.
  | Atomic structure:
  |       Atom                x [A]            y [A]            z [A]
  |    1: Species O             -4.053030         0.065001        -1.525160
  |    2: Species H             -4.566710         0.974813        -1.912820
  |    3: Species H             -3.067820         0.330172        -1.477310
  |    4: Species H             -4.370360        -0.049164        -0.572274
  |    5: Species O             -4.581760        -0.256435         0.939478
  |    6: Species H             -4.349860         0.471090         1.504340
  |    7: Species H             -5.393870        -0.726611         1.228070
  |    8: Species O             -5.293160         2.192130        -2.328800
  |    9: Species H             -4.829300         2.988660        -1.973850
  |   10: Species H             -5.428570         2.328640        -3.235170
  |   11: Species O             -1.645860         0.870179        -1.502250
  |   12: Species H             -1.568890         1.501730        -0.721051
  |   13: Species H             -0.824432         0.282220        -1.377720
  |   14: Species O             -4.066610         4.258280        -0.900064
  |   15: Species H             -3.224110         3.876870        -0.569443
  |   16: Species H             -3.737450         5.116530        -1.322720
  |

  | The smallest distance between any two atoms is         0.92654057 AA.
  |
  | The first atom of this pair is atom number                      8 .
  | The second atom of this pair is atom number                    10 .

  Structure-dependent array size parameters: 
  | Maximum number of distinct radial functions  :       18
  | Maximum number of basis functions            :      360
  | Number of Kohn-Sham states (occupied + empty):       90
------------------------------------------------------------

------------------------------------------------------------
          Preparing all fixed parts of the calculation.
------------------------------------------------------------
  Determining machine precision:
    2.225073858507201E-308
  Setting up grids for atomic and cluster calculations.

  Creating wave function, potential, and density for free atoms.

  Species: H

  List of occupied orbitals and eigenvalues:
    n    l              occ      energy [Ha]    energy [eV]
    1    0           1.0000        -0.241408        -6.5691


  Species: O

  List of occupied orbitals and eigenvalues:
    n    l              occ      energy [Ha]    energy [eV]
    1    0           2.0000       -18.944147      -515.4965
    2    0           2.0000        -0.883529       -24.0421
    2    1           4.0000        -0.330176        -8.9845

  Creating fixed part of basis set: Ionic, confined, hydrogenic.
 
  H                    hydrogenic:
 
  List of hydrogenic basis orbitals: 
    n    l      effective z      eigenvalue [eV]  inner max. [A]     outer max. [A]     outer radius [A]   
    2    0         2.100000       -14.9965           0.193241           1.317192           5.372934
    2    1         3.500000       -41.6672           0.602363           0.602363           4.056010
    1    0         0.850000        -9.8292           0.624864           0.624864           5.372934
    2    1         3.700000       -46.5653           0.573616           0.573616           3.909951
    2    0         1.200000        -4.5995           0.334977           2.228160           5.505921
    3    2         7.000000       -74.0753           0.680692           0.680692           3.769152
 
 
  O                    hydrogenic:
 
  List of hydrogenic basis orbitals: 
    n    l      effective z      eigenvalue [eV]  inner max. [A]     outer max. [A]     outer radius [A]   
    2    1         1.800000       -11.0118           1.178546           1.178546           5.432516
    3    2         7.600000       -87.3182           0.624117           0.624117           3.541422
    3    0         6.400000       -61.9209           0.061166           1.081887           4.306510
    4    3        11.600000      -114.4238           0.731621           0.731621           3.584982
    3    1         6.200000       -58.1113           0.255677           1.030255           4.306510
    3    2         5.600000       -47.4081           0.847222           0.847222           4.413102
    5    4        17.600000      -168.5799           0.749730           0.749730           3.372413
    1    0         0.750000        -7.6499           0.705275           0.705275           5.366508
 

  Adding cutoff potential to free-atom effective potential.
  Creating atomic-like basis functions for current effective potential.

  Species H                   :

  List of atomic basis orbitals and eigenvalues:
    n    l      energy [Ha]    energy [eV]    outer radius [A]
    1    0        -0.241374        -6.5681       5.372934


  Species O                   :

  List of atomic basis orbitals and eigenvalues:
    n    l      energy [Ha]    energy [eV]    outer radius [A]
    1    0       -18.944147      -515.4965       1.415745
    2    0        -0.883529       -24.0421       5.048305
    2    1        -0.330173        -8.9845       5.301302

  Assembling full basis from fixed parts.
  | Species H :   atomic orbital   1 s accepted.
  | Species H :    hydro orbital   2 s accepted.
  | Species H :    hydro orbital   1 s accepted.
  | Species H :    hydro orbital   2 s accepted.
  | Species H :    hydro orbital   2 p accepted.
  | Species H :    hydro orbital   2 p accepted.
  | Species H :    hydro orbital   3 d accepted.
  | Species O :   atomic orbital   1 s accepted.
  | Species O :    hydro orbital   3 s accepted.
  | Species O :   atomic orbital   2 s accepted.
  | Species O :    hydro orbital   1 s accepted.
  | Species O :    hydro orbital   3 p accepted.
  | Species O :   atomic orbital   2 p accepted.
  | Species O :    hydro orbital   2 p accepted.
  | Species O :    hydro orbital   3 d accepted.
  | Species O :    hydro orbital   3 d accepted.
  | Species O :    hydro orbital   4 f accepted.
  | Species O :    hydro orbital   5 g accepted.
 
  Basis size parameters after reduction:
  | Total number of radial functions:       18
  | Total number of basis functions :      360
 
  Testing on-site integration grid accuracy.
  |  Species  Function  <phi|h_atom|phi> (log., in eV)  <phi|h_atom|phi> (rad., in eV)
           1        1                 -6.5683835025                 -6.5684759159
           1        2                 13.3711789951                 13.3708738703
           1        3                 23.6590910787                 23.6532055418
           1        4                 16.2963827186                 16.1870710655 ***
           1        5                 28.7627214838                 28.7627215090
           1        6                 59.5965249172                 59.5965950857
           1        7                 60.2220506392                 60.2220503827
           2        8               -515.4964576505               -515.4964530710
           2        9                 15.3030791347                 15.3030722972
           2       10                -21.7296094581                -21.7296135470
           2       11                 14.2969371730                 14.2969701621
           2       12                 21.0679693190                 21.0679697493
           2       13                 -2.3833606469                 -2.3833613176
           2       14                 13.7067136422                 13.7066766629
           2       15                 45.8013116808                 45.8013116965
           2       16                 52.2309815402                 52.2309831494
           2       17                 85.4120732416                 85.4120732763
           2       18                142.1019167745                142.1019167817
 * Note: Onsite integrals marked "***" above are less accurate than
 * onsite_accuracy_threshold =    0.03000 eV. Usually, this is harmless.
 * When in doubt, tighten the "radial" and/or "radial_multiplier" flags to check.

  Preparing densities etc. for the partition functions (integrals / Hartree potential).

  Preparations completed.
  max(cpu_time)          :      0.172 s.
  Wall clock time (cpu1) :      0.743 s.
------------------------------------------------------------

------------------------------------------------------------
          Begin self-consistency loop: Initialization.

          Date     :  20150727, Time     :  115636.233
------------------------------------------------------------

  Initializing index lists of integration centers etc. from given atomic structure:
  | Number of centers in hartree potential         :        16
  | Number of centers in hartree multipole         :        16
  | Number of centers in electron density summation:        16
  | Number of centers in basis integrals           :        16
  | Number of centers in integrals                 :        16
  Partitioning the integration grid into batches with parallel hashing+maxmin method.
  | Number of batches:     2178
  | Maximal batch size:     183
  | Minimal batch size:      58
  | Average batch size:      95.640
  | Standard deviation of batch sizes:      30.015

  Integration load balanced across     8 MPI tasks.
  Work distribution over tasks is as follows:
  Task     0 has      26027 integration points.
  Task     1 has      26053 integration points.
  Task     2 has      26027 integration points.
  Task     3 has      25996 integration points.
  Task     4 has      25993 integration points.
  Task     5 has      26098 integration points.
  Task     6 has      26113 integration points.
  Task     7 has      25997 integration points.
  Initializing partition tables, free-atom densities, potentials, etc. across the integration grid (initialize_grid_storage).
  | Net number of integration points:   208304
  | of which are non-zero points    :   207747
  Obtaining max. number of non-zero basis functions in each batch (get_n_compute_maxes).
  | Maximal number of non-zero basis functions:      357 in task     0
  | Maximal number of non-zero basis functions:      357 in task     1
  | Maximal number of non-zero basis functions:      357 in task     2
  | Maximal number of non-zero basis functions:      357 in task     3
  | Maximal number of non-zero basis functions:      357 in task     4
  | Maximal number of non-zero basis functions:      357 in task     5
  | Maximal number of non-zero basis functions:      357 in task     6
  | Maximal number of non-zero basis functions:      357 in task     7
  Integrating Hamiltonian matrix: batch-based integration.
  Time summed over all CPUs for integration: real work        8.438 s, elapsed        8.552 s
  Integrating overlap matrix.
  Time summed over all CPUs for integration: real work        4.527 s, elapsed        4.589 s

  Updating Kohn-Sham eigenvalues, eigenvectors, occupation numbers, and Fermi level.
  Solving generalized eigenproblem
  Updating Kohn-Sham eigenvalues and eigenfunctions.
  Transforming overlap matrix and checking for singularities.
  Overlap matrix is nonsingular:
  | Lowest eigenvalue:  0.192093E-03
  Solving real generalised eigenvalue problem by standard LAPACK (fast)
  Determining occupation numbers for Kohn-Sham eigenstates.
  | Chemical potential (Fermi level) in eV                 : -.27484694E+01
  | Error in electron count due to remaining E_F inaccuracy: -.38369308E-12
  | Maximum occupation number of highest empty state:  0.00E+00

  Writing Kohn-Sham eigenvalues.

  State    Occupation    Eigenvalue [Ha]    Eigenvalue [eV]
      1       2.00000         -19.065400         -518.79592
      2       2.00000         -19.064964         -518.78407
      3       2.00000         -19.059134         -518.62542
      4       2.00000         -19.042849         -518.18229
      5       2.00000         -19.042493         -518.17260
      6       2.00000          -1.132123          -30.80665
      7       2.00000          -1.117803          -30.41696
      8       2.00000          -1.104136          -30.04506
      9       2.00000          -1.086649          -29.56923
     10       2.00000          -1.081632          -29.43270
     11       2.00000          -0.653925          -17.79420
     12       2.00000          -0.651870          -17.73829
     13       2.00000          -0.647726          -17.62552
     14       2.00000          -0.627278          -17.06911
     15       2.00000          -0.606159          -16.49443
     16       2.00000          -0.602463          -16.39385
     17       2.00000          -0.543975          -14.80231
     18       2.00000          -0.515309          -14.02228
     19       2.00000          -0.505704          -13.76091
     20       2.00000          -0.503849          -13.71042
     21       2.00000          -0.483258          -13.15012
     22       2.00000          -0.453019          -12.32728
     23       2.00000          -0.446096          -12.13888
     24       2.00000          -0.435876          -11.86079
     25       2.00000          -0.433521          -11.79670
     26       1.00000          -0.101004           -2.74847
     27       0.00000          -0.068661           -1.86836
     28       0.00000          -0.064081           -1.74374
     29       0.00000          -0.047880           -1.30289
     30       0.00000          -0.021702           -0.59054
     31       0.00000          -0.001286           -0.03500
     32       0.00000           0.009013            0.24526
     33       0.00000           0.024152            0.65721
     34       0.00000           0.040027            1.08918
     35       0.00000           0.049710            1.35268
     36       0.00000           0.058785            1.59962
     37       0.00000           0.072845            1.98222
     38       0.00000           0.080894            2.20123
     39       0.00000           0.088462            2.40716
     40       0.00000           0.091622            2.49315
     41       0.00000           0.098564            2.68206
     42       0.00000           0.105873            2.88096
     43       0.00000           0.114526            3.11641
     44       0.00000           0.121346            3.30200
     45       0.00000           0.132455            3.60429
     46       0.00000           0.135269            3.68086
     47       0.00000           0.139913            3.80723
     48       0.00000           0.147223            4.00614
     49       0.00000           0.160083            4.35608
     50       0.00000           0.170235            4.63232
     51       0.00000           0.178678            4.86209
     52       0.00000           0.190956            5.19618
     53       0.00000           0.218107            5.93499
     54       0.00000           0.230287            6.26642
     55       0.00000           0.242349            6.59465
     56       0.00000           0.248686            6.76709
     57       0.00000           0.263987            7.18344
     58       0.00000           0.264483            7.19696
     59       0.00000           0.294645            8.01770
     60       0.00000           0.298209            8.11469
     61       0.00000           0.306669            8.34489
     62       0.00000           0.336631            9.16021
     63       0.00000           0.341608            9.29564
     64       0.00000           0.364022            9.90553
     65       0.00000           0.368589           10.02982
     66       0.00000           0.385881           10.50035
     67       0.00000           0.388328           10.56694
     68       0.00000           0.401061           10.91341
     69       0.00000           0.412156           11.21535
     70       0.00000           0.425289           11.57269
     71       0.00000           0.438972           11.94502
     72       0.00000           0.446745           12.15654
     73       0.00000           0.449332           12.22693
     74       0.00000           0.457042           12.43675
     75       0.00000           0.473888           12.89516
     76       0.00000           0.504436           13.72639
     77       0.00000           0.510448           13.88999
     78       0.00000           0.533894           14.52800
     79       0.00000           0.539933           14.69232
     80       0.00000           0.570543           15.52526
     81       0.00000           0.602542           16.39601
     82       0.00000           0.603815           16.43064
     83       0.00000           0.628111           17.09178
     84       0.00000           0.662862           18.03738
     85       0.00000           0.696390           18.94974
     86       0.00000           0.704422           19.16831
     87       0.00000           0.742584           20.20674
     88       0.00000           0.754377           20.52763
     89       0.00000           0.787025           21.41604
     90       0.00000           0.806672           21.95065

  Highest occupied state (VBM) at    -11.79669547 eV
  | Occupation number:      2.00000000

  Lowest unoccupied state (CBM) at    -2.74846943 eV
  | Occupation number:      1.00000000

  Overall HOMO-LUMO gap:      9.04822604 eV.
  Calculating total energy contributions from superposition of free atom densities.

  Total energy components:
  | Sum of eigenvalues            :        -217.91542500 Ha       -5929.78041821 eV
  | XC energy correction          :         -45.98408607 Ha       -1251.29064705 eV
  | XC potential correction       :          58.77761474 Ha        1599.42027479 eV
  | Free-atom electrostatic energy:        -178.41911477 Ha       -4855.03113417 eV
  | Hartree energy correction     :           0.00000000 Ha           0.00000000 eV
  | van der Waals energy corr.    :           0.00000000 Ha           0.00000000 eV
  | Entropy correction            :          -0.00010367 Ha          -0.00282095 eV
  | ---------------------------
  | Total energy                  :        -383.54101110 Ha      -10436.68192464 eV
  | Total energy, T -> 0          :        -383.54111477 Ha      -10436.68474559 eV  <-- do not rely on this value for anything but (periodic) metals
  | Electronic free energy        :        -383.54121844 Ha      -10436.68756654 eV

  Derived energy quantities:
  | Kinetic energy                :         379.95124681 Ha       10338.99946825 eV
  | Electrostatic energy          :        -717.50817184 Ha      -19524.39074584 eV
  | Energy correction for multipole
  | error in Hartree potential    :           0.00000000 Ha           0.00000000 eV
  | Sum of eigenvalues per atom                           :        -370.61127614 eV
  | Total energy (T->0) per atom                          :        -652.29279660 eV  <-- do not rely on this value for anything but (periodic) metals
  | Electronic free energy per atom                       :        -652.29297291 eV
  Initialize hartree_potential_storage
  Max. number of atoms included in rho_multipole:           16

  End scf initialization - timings             :  max(cpu_time)    wall_clock(cpu1)
  | Time for scf. initialization               :        2.264 s           2.263 s
  | Boundary condition initialization          :        0.000 s           0.000 s
  | Integration                                :        1.647 s           1.646 s
  | Solution of K.-S. eqns.                    :        0.213 s           0.214 s
  | Grid partitioning                          :        0.167 s           0.167 s
  | Preloading free-atom quantities on grid    :        0.013 s           0.014 s
  | Free-atom superposition energy             :        0.072 s           0.072 s
  | Total energy evaluation                    :        0.001 s           0.000 s
------------------------------------------------------------

------------------------------------------------------------
          Begin self-consistency iteration #    1

  Date     :  20150727, Time     :  115638.497
------------------------------------------------------------
  Evaluating new KS density.
  Integration grid: deviation in total charge (<rho> - N_e) =  -3.979039E-13
  Pulay mixing of updated and previous charge densities.

  Evaluating partitioned Hartree potential by multipole expansion.
  | Analytical far-field extrapolation by fixed multipoles:
  | Hartree multipole sum: apparent total charge =  -0.146930E-05
  Summing up the Hartree potential.
  Time summed over all CPUs for potential: real work        2.896 s, elapsed        2.914 s
  | RMS charge density error from multipole expansion :   0.168150E-02

  Integrating Hamiltonian matrix: batch-based integration.
  Time summed over all CPUs for integration: real work        8.420 s, elapsed        8.541 s

  Updating Kohn-Sham eigenvalues, eigenvectors, occupation numbers, and Fermi level.
  Solving generalized eigenproblem
  Updating Kohn-Sham eigenvalues and eigenfunctions.
  Solving real generalised eigenvalue problem by standard LAPACK (fast)
  Determining occupation numbers for Kohn-Sham eigenstates.
  | Chemical potential (Fermi level) in eV                 : -.25193764E+01
  | Error in electron count due to remaining E_F inaccuracy: -.17053026E-12
  | Maximum occupation number of highest empty state:  0.00E+00

  Writing Kohn-Sham eigenvalues.

  State    Occupation    Eigenvalue [Ha]    Eigenvalue [eV]
      1       2.00000         -19.004413         -517.13639
      2       2.00000         -18.993260         -516.83289
      3       2.00000         -18.989731         -516.73688
      4       2.00000         -18.972451         -516.26667
      5       2.00000         -18.966993         -516.11813
      6       2.00000          -1.100667          -29.95066
      7       2.00000          -1.083426          -29.48153
      8       2.00000          -1.071578          -29.15911
      9       2.00000          -1.048325          -28.52639
     10       2.00000          -1.046903          -28.48768
     11       2.00000          -0.624596          -16.99612
     12       2.00000          -0.622973          -16.95196
     13       2.00000          -0.620457          -16.88351
     14       2.00000          -0.600225          -16.33295
     15       2.00000          -0.574027          -15.62006
     16       2.00000          -0.572022          -15.56550
     17       2.00000          -0.511798          -13.92673
     18       2.00000          -0.480262          -13.06860
     19       2.00000          -0.471316          -12.82516
     20       2.00000          -0.468105          -12.73779
     21       2.00000          -0.450645          -12.26267
     22       2.00000          -0.416934          -11.34536
     23       2.00000          -0.411988          -11.21078
     24       2.00000          -0.399744          -10.87759
     25       2.00000          -0.393808          -10.71606
     26       1.00000          -0.092585           -2.51938
     27       0.00000          -0.061797           -1.68157
     28       0.00000          -0.056461           -1.53637
     29       0.00000          -0.040017           -1.08892
     30       0.00000          -0.014206           -0.38656
     31       0.00000           0.004270            0.11618
     32       0.00000           0.018303            0.49806
     33       0.00000           0.033691            0.91679
     34       0.00000           0.047980            1.30560
     35       0.00000           0.056044            1.52503
     36       0.00000           0.065159            1.77306
     37       0.00000           0.081061            2.20577
     38       0.00000           0.088899            2.41906
     39       0.00000           0.098303            2.67496
     40       0.00000           0.102385            2.78603
     41       0.00000           0.105252            2.86406
     42       0.00000           0.113733            3.09483
     43       0.00000           0.123991            3.37398
     44       0.00000           0.131621            3.58158
     45       0.00000           0.142577            3.87971
     46       0.00000           0.147023            4.00070
     47       0.00000           0.149962            4.08068
     48       0.00000           0.162976            4.43480
     49       0.00000           0.167351            4.55385
     50       0.00000           0.178147            4.84762
     51       0.00000           0.186925            5.08648
     52       0.00000           0.198825            5.41031
     53       0.00000           0.224979            6.12199
     54       0.00000           0.238739            6.49641
     55       0.00000           0.250517            6.81692
     56       0.00000           0.256901            6.99062
     57       0.00000           0.271480            7.38734
     58       0.00000           0.272145            7.40543
     59       0.00000           0.300056            8.16494
     60       0.00000           0.304348            8.28174
     61       0.00000           0.314084            8.54665
     62       0.00000           0.343404            9.34450
     63       0.00000           0.350608            9.54053
     64       0.00000           0.372434           10.13446
     65       0.00000           0.376643           10.24899
     66       0.00000           0.394236           10.72772
     67       0.00000           0.397136           10.80661
     68       0.00000           0.409038           11.13050
     69       0.00000           0.420654           11.44659
     70       0.00000           0.433393           11.79321
     71       0.00000           0.446286           12.14406
     72       0.00000           0.454179           12.35885
     73       0.00000           0.459848           12.51309
     74       0.00000           0.465760           12.67396
     75       0.00000           0.483474           13.15599
     76       0.00000           0.513157           13.96371
     77       0.00000           0.519365           14.13264
     78       0.00000           0.543173           14.78049
     79       0.00000           0.550245           14.97293
     80       0.00000           0.580103           15.78541
     81       0.00000           0.613596           16.69679
     82       0.00000           0.614168           16.71237
     83       0.00000           0.639596           17.40429
     84       0.00000           0.673506           18.32703
     85       0.00000           0.707256           19.24542
     86       0.00000           0.716042           19.48449
     87       0.00000           0.751604           20.45218
     88       0.00000           0.765001           20.81675
     89       0.00000           0.797275           21.69495
     90       0.00000           0.814785           22.17144

  Highest occupied state (VBM) at    -10.71605817 eV
  | Occupation number:      2.00000000

  Lowest unoccupied state (CBM) at    -2.51937640 eV
  | Occupation number:      1.00000000

  Overall HOMO-LUMO gap:      8.19668177 eV.

  Total energy components:
  | Sum of eigenvalues            :        -215.88588201 Ha       -5874.55374346 eV
  | XC energy correction          :         -46.20251355 Ha       -1257.23436106 eV
  | XC potential correction       :          59.06271556 Ha        1607.17826277 eV
  | Free-atom electrostatic energy:        -178.41911477 Ha       -4855.03113417 eV
  | Hartree energy correction     :          -1.98166514 Ha         -53.92385200 eV
  | van der Waals energy corr.    :           0.00000000 Ha           0.00000000 eV
  | Entropy correction            :          -0.00010367 Ha          -0.00282095 eV
  | ---------------------------
  | Total energy                  :        -383.42645990 Ha      -10433.56482792 eV
  | Total energy, T -> 0          :        -383.42656357 Ha      -10433.56764887 eV  <-- do not rely on this value for anything but (periodic) metals
  | Electronic free energy        :        -383.42666724 Ha      -10433.57046982 eV

  Derived energy quantities:
  | Kinetic energy                :         381.28286789 Ha       10375.23472150 eV
  | Electrostatic energy          :        -718.50681425 Ha      -19551.56518836 eV
  | Energy correction for multipole
  | error in Hartree potential    :           0.00022351 Ha           0.00608200 eV
  | Sum of eigenvalues per atom                           :        -367.15960897 eV
  | Total energy (T->0) per atom                          :        -652.09797805 eV  <-- do not rely on this value for anything but (periodic) metals
  | Electronic free energy per atom                       :        -652.09815436 eV

  Self-consistency convergence accuracy:
  | Change of charge density      : 0.6297E+00
  | Change of sum of eigenvalues  : 0.5523E+02 eV
  | Change of total energy        : 0.3117E+01 eV

  End self-consistency iteration #     1       :  max(cpu_time)    wall_clock(cpu1)
  | Time for this iteration                    :        2.194 s           2.194 s
  | Charge density update                      :        0.693 s           0.692 s
  | Density mixing                             :        0.003 s           0.004 s
  | Hartree multipole update                   :        0.005 s           0.005 s
  | Hartree multipole summation                :        0.365 s           0.365 s
  | Integration                                :        1.070 s           1.069 s
  | Solution of K.-S. eqns.                    :        0.057 s           0.057 s
  | Total energy evaluation                    :        0.001 s           0.000 s
------------------------------------------------------------

------------------------------------------------------------
          Begin self-consistency iteration #    2

  Date     :  20150727, Time     :  115640.691
------------------------------------------------------------
  Evaluating new KS density.
  Integration grid: deviation in total charge (<rho> - N_e) =  -1.705303E-13
  Pulay mixing of updated and previous charge densities.

  Evaluating partitioned Hartree potential by multipole expansion.
  | Analytical far-field extrapolation by fixed multipoles:
  | Hartree multipole sum: apparent total charge =  -0.512729E-05
  Summing up the Hartree potential.
  Time summed over all CPUs for potential: real work        2.895 s, elapsed        2.913 s
  | RMS charge density error from multipole expansion :   0.689248E-02

  Integrating Hamiltonian matrix: batch-based integration.
  Time summed over all CPUs for integration: real work        8.417 s, elapsed        8.564 s

  Updating Kohn-Sham eigenvalues, eigenvectors, occupation numbers, and Fermi level.
  Solving generalized eigenproblem
  Updating Kohn-Sham eigenvalues and eigenfunctions.
  Solving real generalised eigenvalue problem by standard LAPACK (fast)
  Determining occupation numbers for Kohn-Sham eigenstates.
  | Chemical potential (Fermi level) in eV                 : -.19809340E+01
  | Error in electron count due to remaining E_F inaccuracy: 0.00000000E+00
  | Maximum occupation number of highest empty state:  0.00E+00

  Highest occupied state (VBM) at     -1.98093401 eV
  | Occupation number:      1.00000000

  Lowest unoccupied state (CBM) at    -1.98093401 eV
  | Occupation number:      1.00000000

  Overall HOMO-LUMO gap:      0.00000000 eV.

  Total energy components:
  | Sum of eigenvalues            :        -210.94034765 Ha       -5739.97890648 eV
  | XC energy correction          :         -46.76287670 Ha       -1272.48261822 eV
  | XC potential correction       :          59.79251670 Ha        1627.03716205 eV
  | Free-atom electrostatic energy:        -178.41911477 Ha       -4855.03113417 eV
  | Hartree energy correction     :          -6.96643555 Ha        -189.56635623 eV
  | van der Waals energy corr.    :           0.00000000 Ha           0.00000000 eV
  | Entropy correction            :          -0.00010367 Ha          -0.00282095 eV
  | ---------------------------
  | Total energy                  :        -383.29625797 Ha      -10430.02185305 eV
  | Total energy, T -> 0          :        -383.29636164 Ha      -10430.02467399 eV  <-- do not rely on this value for anything but (periodic) metals
  | Electronic free energy        :        -383.29646531 Ha      -10430.02749494 eV

  Derived energy quantities:
  | Kinetic energy                :         384.11551823 Ha       10452.31505885 eV
  | Electrostatic energy          :        -720.64889950 Ha      -19609.85429367 eV
  | Energy correction for multipole
  | error in Hartree potential    :          -0.00008142 Ha          -0.00221548 eV
  | Sum of eigenvalues per atom                           :        -358.74868166 eV
  | Total energy (T->0) per atom                          :        -651.87654212 eV  <-- do not rely on this value for anything but (periodic) metals
  | Electronic free energy per atom                       :        -651.87671843 eV

  Self-consistency convergence accuracy:
  | Change of charge density      : 0.4797E+00
  | Change of sum of eigenvalues  : 0.1346E+03 eV
  | Change of total energy        : 0.3543E+01 eV

  End self-consistency iteration #     2       :  max(cpu_time)    wall_clock(cpu1)
  | Time for this iteration                    :        2.195 s           2.194 s
  | Charge density update                      :        0.690 s           0.689 s
  | Density mixing                             :        0.006 s           0.006 s
  | Hartree multipole update                   :        0.005 s           0.005 s
  | Hartree multipole summation                :        0.365 s           0.365 s
  | Integration                                :        1.072 s           1.072 s
  | Solution of K.-S. eqns.                    :        0.057 s           0.057 s
  | Total energy evaluation                    :        0.000 s           0.000 s
------------------------------------------------------------

------------------------------------------------------------
          Begin self-consistency iteration #    3

  Date     :  20150727, Time     :  115642.885
------------------------------------------------------------
  Evaluating new KS density.
  Integration grid: deviation in total charge (<rho> - N_e) =   7.105427E-15
  Pulay mixing of updated and previous charge densities.

  Evaluating partitioned Hartree potential by multipole expansion.
  | Analytical far-field extrapolation by fixed multipoles:
  | Hartree multipole sum: apparent total charge =  -0.612493E-05
  Summing up the Hartree potential.
  Time summed over all CPUs for potential: real work        2.895 s, elapsed        2.913 s
  | RMS charge density error from multipole expansion :   0.144010E-01

  Integrating Hamiltonian matrix: batch-based integration.
  Time summed over all CPUs for integration: real work        8.410 s, elapsed        8.553 s

  Updating Kohn-Sham eigenvalues, eigenvectors, occupation numbers, and Fermi level.
  Solving generalized eigenproblem
  Updating Kohn-Sham eigenvalues and eigenfunctions.
  Solving real generalised eigenvalue problem by standard LAPACK (fast)
  Determining occupation numbers for Kohn-Sham eigenstates.
  | Chemical potential (Fermi level) in eV                 : -.19298734E+01
  | Error in electron count due to remaining E_F inaccuracy: -.47748472E-11
  | Maximum occupation number of highest empty state:  0.00E+00

  Highest occupied state (VBM) at     -8.22755511 eV
  | Occupation number:      2.00000000

  Lowest unoccupied state (CBM) at    -1.92987343 eV
  | Occupation number:      1.00000000

  Overall HOMO-LUMO gap:      6.29768168 eV.

  Total energy components:
  | Sum of eigenvalues            :        -211.16672536 Ha       -5746.13895743 eV
  | XC energy correction          :         -46.77306984 Ha       -1272.75998757 eV
  | XC potential correction       :          59.79671479 Ha        1627.15139787 eV
  | Free-atom electrostatic energy:        -178.41911477 Ha       -4855.03113417 eV
  | Hartree energy correction     :          -6.73334733 Ha        -183.22370307 eV
  | van der Waals energy corr.    :           0.00000000 Ha           0.00000000 eV
  | Entropy correction            :          -0.00010367 Ha          -0.00282095 eV
  | ---------------------------
  | Total energy                  :        -383.29554251 Ha      -10430.00238437 eV
  | Total energy, T -> 0          :        -383.29564618 Ha      -10430.00520532 eV  <-- do not rely on this value for anything but (periodic) metals
  | Electronic free energy        :        -383.29574985 Ha      -10430.00802626 eV

  Derived energy quantities:
  | Kinetic energy                :         382.33212959 Ha       10403.78658506 eV
  | Electrostatic energy          :        -718.85460227 Ha      -19561.02898185 eV
  | Energy correction for multipole
  | error in Hartree potential    :          -0.00551957 Ha          -0.15019506 eV
  | Sum of eigenvalues per atom                           :        -359.13368484 eV
  | Total energy (T->0) per atom                          :        -651.87532533 eV  <-- do not rely on this value for anything but (periodic) metals
  | Electronic free energy per atom                       :        -651.87550164 eV

  Self-consistency convergence accuracy:
  | Change of charge density      : 0.2307E+00
  | Change of sum of eigenvalues  : -.6160E+01 eV
  | Change of total energy        : 0.1947E-01 eV

  End self-consistency iteration #     3       :  max(cpu_time)    wall_clock(cpu1)
  | Time for this iteration                    :        2.189 s           2.189 s
  | Charge density update                      :        0.684 s           0.684 s
  | Density mixing                             :        0.007 s           0.007 s
  | Hartree multipole update                   :        0.005 s           0.005 s
  | Hartree multipole summation                :        0.365 s           0.365 s
  | Integration                                :        1.071 s           1.070 s
  | Solution of K.-S. eqns.                    :        0.057 s           0.058 s
  | Total energy evaluation                    :        0.000 s           0.000 s
------------------------------------------------------------

------------------------------------------------------------
          Begin self-consistency iteration #    4

  Date     :  20150727, Time     :  115645.074
------------------------------------------------------------
  Evaluating new KS density.
  Integration grid: deviation in total charge (<rho> - N_e) =  -4.760636E-12
  Pulay mixing of updated and previous charge densities.

  Evaluating partitioned Hartree potential by multipole expansion.
  | Analytical far-field extrapolation by fixed multipoles:
  | Hartree multipole sum: apparent total charge =  -0.686687E-05
  Summing up the Hartree potential.
  Time summed over all CPUs for potential: real work        2.894 s, elapsed        2.914 s
  | RMS charge density error from multipole expansion :   0.166432E-01

  Integrating Hamiltonian matrix: batch-based integration.
  Time summed over all CPUs for integration: real work        8.420 s, elapsed        8.561 s

  Updating Kohn-Sham eigenvalues, eigenvectors, occupation numbers, and Fermi level.
  Solving generalized eigenproblem
  Updating Kohn-Sham eigenvalues and eigenfunctions.
  Solving real generalised eigenvalue problem by standard LAPACK (fast)
  Determining occupation numbers for Kohn-Sham eigenstates.
  | Chemical potential (Fermi level) in eV                 : -.18495310E+01
  | Error in electron count due to remaining E_F inaccuracy: 0.42632564E-13
  | Maximum occupation number of highest empty state:  0.00E+00

  Highest occupied state (VBM) at     -1.84953105 eV
  | Occupation number:      1.00000000

  Lowest unoccupied state (CBM) at    -1.09820691 eV
  | Occupation number:      0.00000000

  Overall HOMO-LUMO gap:      0.75132414 eV.

  Total energy components:
  | Sum of eigenvalues            :        -210.43357295 Ha       -5726.18886512 eV
  | XC energy correction          :         -46.87219992 Ha       -1275.45745448 eV
  | XC potential correction       :          59.92427989 Ha        1630.62262094 eV
  | Free-atom electrostatic energy:        -178.41911477 Ha       -4855.03113417 eV
  | Hartree energy correction     :          -7.49107807 Ha        -203.84260570 eV
  | van der Waals energy corr.    :           0.00000000 Ha           0.00000000 eV
  | Entropy correction            :          -0.00010367 Ha          -0.00282095 eV
  | ---------------------------
  | Total energy                  :        -383.29168582 Ha      -10429.89743852 eV
  | Total energy, T -> 0          :        -383.29178949 Ha      -10429.90025947 eV  <-- do not rely on this value for anything but (periodic) metals
  | Electronic free energy        :        -383.29189316 Ha      -10429.90308041 eV

  Derived energy quantities:
  | Kinetic energy                :         382.43204517 Ha       10406.50542615 eV
  | Electrostatic energy          :        -718.85153106 Ha      -19560.94541019 eV
  | Energy correction for multipole
  | error in Hartree potential    :          -0.00666688 Ha          -0.18141494 eV
  | Sum of eigenvalues per atom                           :        -357.88680407 eV
  | Total energy (T->0) per atom                          :        -651.86876622 eV  <-- do not rely on this value for anything but (periodic) metals
  | Electronic free energy per atom                       :        -651.86894253 eV

  Self-consistency convergence accuracy:
  | Change of charge density      : 0.1001E+00
  | Change of sum of eigenvalues  : 0.1995E+02 eV
  | Change of total energy        : 0.1049E+00 eV

  End self-consistency iteration #     4       :  max(cpu_time)    wall_clock(cpu1)
  | Time for this iteration                    :        2.191 s           2.191 s
  | Charge density update                      :        0.683 s           0.683 s
  | Density mixing                             :        0.009 s           0.008 s
  | Hartree multipole update                   :        0.005 s           0.005 s
  | Hartree multipole summation                :        0.365 s           0.365 s
  | Integration                                :        1.072 s           1.072 s
  | Solution of K.-S. eqns.                    :        0.056 s           0.056 s
  | Total energy evaluation                    :        0.000 s           0.000 s
------------------------------------------------------------

------------------------------------------------------------
          Begin self-consistency iteration #    5

  Date     :  20150727, Time     :  115647.265
------------------------------------------------------------
  Evaluating new KS density.
  Integration grid: deviation in total charge (<rho> - N_e) =   4.973799E-14
  Pulay mixing of updated and previous charge densities.

  Evaluating partitioned Hartree potential by multipole expansion.
  | Analytical far-field extrapolation by fixed multipoles:
  | Hartree multipole sum: apparent total charge =  -0.725321E-05
  Summing up the Hartree potential.
  Time summed over all CPUs for potential: real work        2.895 s, elapsed        2.913 s
  | RMS charge density error from multipole expansion :   0.179508E-01

  Integrating Hamiltonian matrix: batch-based integration.
  Time summed over all CPUs for integration: real work        8.414 s, elapsed        8.533 s

  Updating Kohn-Sham eigenvalues, eigenvectors, occupation numbers, and Fermi level.
  Solving generalized eigenproblem
  Updating Kohn-Sham eigenvalues and eigenfunctions.
  Solving real generalised eigenvalue problem by standard LAPACK (fast)
  Determining occupation numbers for Kohn-Sham eigenstates.
  | Chemical potential (Fermi level) in eV                 : -.18256854E+01
  | Error in electron count due to remaining E_F inaccuracy: 0.42632564E-13
  | Maximum occupation number of highest empty state:  0.00E+00

  Highest occupied state (VBM) at     -1.82568537 eV
  | Occupation number:      1.00000000

  Lowest unoccupied state (CBM) at    -1.09391597 eV
  | Occupation number:      0.00000000

  Overall HOMO-LUMO gap:      0.73176940 eV.

  Total energy components:
  | Sum of eigenvalues            :        -210.15300103 Ha       -5718.55411484 eV
  | XC energy correction          :         -46.91344293 Ha       -1276.57973370 eV
  | XC potential correction       :          59.97693411 Ha        1632.05541524 eV
  | Free-atom electrostatic energy:        -178.41911477 Ha       -4855.03113417 eV
  | Hartree energy correction     :          -7.78243187 Ha        -211.77074594 eV
  | van der Waals energy corr.    :           0.00000000 Ha           0.00000000 eV
  | Entropy correction            :          -0.00010367 Ha          -0.00282095 eV
  | ---------------------------
  | Total energy                  :        -383.29105648 Ha      -10429.88031340 eV
  | Total energy, T -> 0          :        -383.29116015 Ha      -10429.88313435 eV  <-- do not rely on this value for anything but (periodic) metals
  | Electronic free energy        :        -383.29126382 Ha      -10429.88595530 eV

  Derived energy quantities:
  | Kinetic energy                :         382.44127118 Ha       10406.75647870 eV
  | Electrostatic energy          :        -718.81888474 Ha      -19560.05705840 eV
  | Energy correction for multipole
  | error in Hartree potential    :          -0.00763380 Ha          -0.20772637 eV
  | Sum of eigenvalues per atom                           :        -357.40963218 eV
  | Total energy (T->0) per atom                          :        -651.86769590 eV  <-- do not rely on this value for anything but (periodic) metals
  | Electronic free energy per atom                       :        -651.86787221 eV

  Self-consistency convergence accuracy:
  | Change of charge density      : 0.4580E-01
  | Change of sum of eigenvalues  : 0.7635E+01 eV
  | Change of total energy        : 0.1713E-01 eV

  End self-consistency iteration #     5       :  max(cpu_time)    wall_clock(cpu1)
  | Time for this iteration                    :        2.189 s           2.189 s
  | Charge density update                      :        0.684 s           0.684 s
  | Density mixing                             :        0.010 s           0.010 s
  | Hartree multipole update                   :        0.005 s           0.005 s
  | Hartree multipole summation                :        0.365 s           0.365 s
  | Integration                                :        1.068 s           1.068 s
  | Solution of K.-S. eqns.                    :        0.057 s           0.057 s
  | Total energy evaluation                    :        0.000 s           0.000 s
------------------------------------------------------------

------------------------------------------------------------
          Begin self-consistency iteration #    6

  Date     :  20150727, Time     :  115649.454
------------------------------------------------------------
  Evaluating new KS density.
  Integration grid: deviation in total charge (<rho> - N_e) =   4.973799E-14
  Pulay mixing of updated and previous charge densities.

  Evaluating partitioned Hartree potential by multipole expansion.
  | Analytical far-field extrapolation by fixed multipoles:
  | Hartree multipole sum: apparent total charge =  -0.728706E-05
  Summing up the Hartree potential.
  Time summed over all CPUs for potential: real work        2.894 s, elapsed        2.913 s
  | RMS charge density error from multipole expansion :   0.181950E-01

  Integrating Hamiltonian matrix: batch-based integration.
  Time summed over all CPUs for integration: real work        8.418 s, elapsed        8.535 s

  Updating Kohn-Sham eigenvalues, eigenvectors, occupation numbers, and Fermi level.
  Solving generalized eigenproblem
  Updating Kohn-Sham eigenvalues and eigenfunctions.
  Solving real generalised eigenvalue problem by standard LAPACK (fast)
  Determining occupation numbers for Kohn-Sham eigenstates.
  | Chemical potential (Fermi level) in eV                 : -.18313171E+01
  | Error in electron count due to remaining E_F inaccuracy: 0.90338403E-10
  | Maximum occupation number of highest empty state:  0.00E+00

  Highest occupied state (VBM) at     -1.83131706 eV
  | Occupation number:      1.00000000

  Lowest unoccupied state (CBM) at    -1.09214373 eV
  | Occupation number:      0.00000000

  Overall HOMO-LUMO gap:      0.73917333 eV.

  Total energy components:
  | Sum of eigenvalues            :        -210.15162812 Ha       -5718.51675619 eV
  | XC energy correction          :         -46.91557920 Ha       -1276.63786463 eV
  | XC potential correction       :          59.97943026 Ha        1632.12333888 eV
  | Free-atom electrostatic energy:        -178.41911477 Ha       -4855.03113417 eV
  | Hartree energy correction     :          -7.78418868 Ha        -211.81855131 eV
  | van der Waals energy corr.    :           0.00000000 Ha           0.00000000 eV
  | Entropy correction            :          -0.00010367 Ha          -0.00282095 eV
  | ---------------------------
  | Total energy                  :        -383.29108052 Ha      -10429.88096740 eV
  | Total energy, T -> 0          :        -383.29118419 Ha      -10429.88378835 eV  <-- do not rely on this value for anything but (periodic) metals
  | Electronic free energy        :        -383.29128785 Ha      -10429.88660930 eV

  Derived energy quantities:
  | Kinetic energy                :         382.42025131 Ha       10406.18449887 eV
  | Electrostatic energy          :        -718.79575262 Ha      -19559.42760165 eV
  | Energy correction for multipole
  | error in Hartree potential    :          -0.00788145 Ha          -0.21446528 eV
  | Sum of eigenvalues per atom                           :        -357.40729726 eV
  | Total energy (T->0) per atom                          :        -651.86773677 eV  <-- do not rely on this value for anything but (periodic) metals
  | Electronic free energy per atom                       :        -651.86791308 eV

  Self-consistency convergence accuracy:
  | Change of charge density      : 0.7588E-02
  | Change of sum of eigenvalues  : 0.3736E-01 eV
  | Change of total energy        : -.6540E-03 eV

  End self-consistency iteration #     6       :  max(cpu_time)    wall_clock(cpu1)
  | Time for this iteration                    :        2.189 s           2.189 s
  | Charge density update                      :        0.682 s           0.682 s
  | Density mixing                             :        0.012 s           0.011 s
  | Hartree multipole update                   :        0.005 s           0.005 s
  | Hartree multipole summation                :        0.364 s           0.365 s
  | Integration                                :        1.068 s           1.069 s
  | Solution of K.-S. eqns.                    :        0.057 s           0.057 s
  | Total energy evaluation                    :        0.000 s           0.000 s
------------------------------------------------------------

------------------------------------------------------------
          Begin self-consistency iteration #    7

  Date     :  20150727, Time     :  115651.643
------------------------------------------------------------
  Evaluating new KS density.
  Integration grid: deviation in total charge (<rho> - N_e) =   9.035972E-11
  Pulay mixing of updated and previous charge densities.

  Evaluating partitioned Hartree potential by multipole expansion.
  | Analytical far-field extrapolation by fixed multipoles:
  | Hartree multipole sum: apparent total charge =  -0.724893E-05
  Summing up the Hartree potential.
  Time summed over all CPUs for potential: real work        2.894 s, elapsed        2.913 s
  | RMS charge density error from multipole expansion :   0.182037E-01

  Integrating Hamiltonian matrix: batch-based integration.
  Time summed over all CPUs for integration: real work        8.422 s, elapsed        8.550 s

  Updating Kohn-Sham eigenvalues, eigenvectors, occupation numbers, and Fermi level.
  Solving generalized eigenproblem
  Updating Kohn-Sham eigenvalues and eigenfunctions.
  Solving real generalised eigenvalue problem by standard LAPACK (fast)
  Determining occupation numbers for Kohn-Sham eigenstates.
  | Chemical potential (Fermi level) in eV                 : -.18522358E+01
  | Error in electron count due to remaining E_F inaccuracy: 0.00000000E+00
  | Maximum occupation number of highest empty state:  0.00E+00

  Highest occupied state (VBM) at     -1.85223580 eV
  | Occupation number:      1.00000000

  Lowest unoccupied state (CBM) at    -1.85223580 eV
  | Occupation number:      1.00000000

  Overall HOMO-LUMO gap:      0.00000000 eV.

  Total energy components:
  | Sum of eigenvalues            :        -210.21416185 Ha       -5720.21838537 eV
  | XC energy correction          :         -46.90860770 Ha       -1276.44816046 eV
  | XC potential correction       :          59.97015325 Ha        1631.87089864 eV
  | Free-atom electrostatic energy:        -178.41911477 Ha       -4855.03113417 eV
  | Hartree energy correction     :          -7.71932794 Ha        -210.05360077 eV
  | van der Waals energy corr.    :           0.00000000 Ha           0.00000000 eV
  | Entropy correction            :          -0.00010367 Ha          -0.00282095 eV
  | ---------------------------
  | Total energy                  :        -383.29105901 Ha      -10429.88038213 eV
  | Total energy, T -> 0          :        -383.29116268 Ha      -10429.88320308 eV  <-- do not rely on this value for anything but (periodic) metals
  | Electronic free energy        :        -383.29126635 Ha      -10429.88602403 eV

  Derived energy quantities:
  | Kinetic energy                :         382.44258424 Ha       10406.79220880 eV
  | Electrostatic energy          :        -718.82503555 Ha      -19560.22443047 eV
  | Energy correction for multipole
  | error in Hartree potential    :          -0.00810703 Ha          -0.22060353 eV
  | Sum of eigenvalues per atom                           :        -357.51364909 eV
  | Total energy (T->0) per atom                          :        -651.86770019 eV  <-- do not rely on this value for anything but (periodic) metals
  | Electronic free energy per atom                       :        -651.86787650 eV

  Self-consistency convergence accuracy:
  | Change of charge density      : 0.6487E-02
  | Change of sum of eigenvalues  : -.1702E+01 eV
  | Change of total energy        : 0.5853E-03 eV

  End self-consistency iteration #     7       :  max(cpu_time)    wall_clock(cpu1)
  | Time for this iteration                    :        2.192 s           2.192 s
  | Charge density update                      :        0.682 s           0.682 s
  | Density mixing                             :        0.013 s           0.013 s
  | Hartree multipole update                   :        0.005 s           0.005 s
  | Hartree multipole summation                :        0.364 s           0.365 s
  | Integration                                :        1.070 s           1.070 s
  | Solution of K.-S. eqns.                    :        0.057 s           0.057 s
  | Total energy evaluation                    :        0.000 s           0.000 s
------------------------------------------------------------

------------------------------------------------------------
          Begin self-consistency iteration #    8

  Date     :  20150727, Time     :  115653.836
------------------------------------------------------------
  Evaluating new KS density.
  Integration grid: deviation in total charge (<rho> - N_e) =   0.000000E+00
  Pulay mixing of updated and previous charge densities.

  Evaluating partitioned Hartree potential by multipole expansion.
  | Analytical far-field extrapolation by fixed multipoles:
  | Hartree multipole sum: apparent total charge =  -0.721485E-05
  Summing up the Hartree potential.
  Time summed over all CPUs for potential: real work        2.894 s, elapsed        2.913 s
  | RMS charge density error from multipole expansion :   0.182094E-01

  Integrating Hamiltonian matrix: batch-based integration.
  Time summed over all CPUs for integration: real work        8.428 s, elapsed        8.584 s

  Updating Kohn-Sham eigenvalues, eigenvectors, occupation numbers, and Fermi level.
  Solving generalized eigenproblem
  Updating Kohn-Sham eigenvalues and eigenfunctions.
  Solving real generalised eigenvalue problem by standard LAPACK (fast)
  Determining occupation numbers for Kohn-Sham eigenstates.
  | Chemical potential (Fermi level) in eV                 : -.18584187E+01
  | Error in electron count due to remaining E_F inaccuracy: -.23447910E-11
  | Maximum occupation number of highest empty state:  0.00E+00

  Highest occupied state (VBM) at     -7.55037696 eV
  | Occupation number:      2.00000000

  Lowest unoccupied state (CBM) at    -1.85841875 eV
  | Occupation number:      1.00000000

  Overall HOMO-LUMO gap:      5.69195821 eV.

  Total energy components:
  | Sum of eigenvalues            :        -210.24655329 Ha       -5721.09980129 eV
  | XC energy correction          :         -46.90533839 Ha       -1276.35919791 eV
  | XC potential correction       :          59.96582539 Ha        1631.75313163 eV
  | Free-atom electrostatic energy:        -178.41911477 Ha       -4855.03113417 eV
  | Hartree energy correction     :          -7.68587368 Ha        -209.14326396 eV
  | van der Waals energy corr.    :           0.00000000 Ha           0.00000000 eV
  | Entropy correction            :          -0.00010367 Ha          -0.00282095 eV
  | ---------------------------
  | Total energy                  :        -383.29105473 Ha      -10429.88026570 eV
  | Total energy, T -> 0          :        -383.29115840 Ha      -10429.88308665 eV  <-- do not rely on this value for anything but (periodic) metals
  | Electronic free energy        :        -383.29126207 Ha      -10429.88590760 eV

  Derived energy quantities:
  | Kinetic energy                :         382.45952376 Ha       10407.25315664 eV
  | Electrostatic energy          :        -718.84524010 Ha      -19560.77422443 eV
  | Energy correction for multipole
  | error in Hartree potential    :          -0.00823420 Ha          -0.22406395 eV
  | Sum of eigenvalues per atom                           :        -357.56873758 eV
  | Total energy (T->0) per atom                          :        -651.86769292 eV  <-- do not rely on this value for anything but (periodic) metals
  | Electronic free energy per atom                       :        -651.86786923 eV

  Self-consistency convergence accuracy:
  | Change of charge density      : 0.2610E-02
  | Change of sum of eigenvalues  : -.8814E+00 eV
  | Change of total energy        : 0.1164E-03 eV

  End self-consistency iteration #     8       :  max(cpu_time)    wall_clock(cpu1)
  | Time for this iteration                    :        2.201 s           2.200 s
  | Charge density update                      :        0.685 s           0.684 s
  | Density mixing                             :        0.014 s           0.014 s
  | Hartree multipole update                   :        0.005 s           0.005 s
  | Hartree multipole summation                :        0.365 s           0.365 s
  | Integration                                :        1.075 s           1.074 s
  | Solution of K.-S. eqns.                    :        0.057 s           0.058 s
  | Total energy evaluation                    :        0.000 s           0.000 s
------------------------------------------------------------

------------------------------------------------------------
          Begin self-consistency iteration #    9

  Date     :  20150727, Time     :  115656.036
------------------------------------------------------------
  Evaluating new KS density.
  Integration grid: deviation in total charge (<rho> - N_e) =  -2.373213E-12
  Pulay mixing of updated and previous charge densities.

  Evaluating partitioned Hartree potential by multipole expansion.
  | Analytical far-field extrapolation by fixed multipoles:
  | Hartree multipole sum: apparent total charge =  -0.720043E-05
  Summing up the Hartree potential.
  Time summed over all CPUs for potential: real work        2.895 s, elapsed        2.914 s
  | RMS charge density error from multipole expansion :   0.182096E-01

  Integrating Hamiltonian matrix: batch-based integration.
  Time summed over all CPUs for integration: real work        8.419 s, elapsed        8.560 s

  Updating Kohn-Sham eigenvalues, eigenvectors, occupation numbers, and Fermi level.
  Solving generalized eigenproblem
  Updating Kohn-Sham eigenvalues and eigenfunctions.
  Solving real generalised eigenvalue problem by standard LAPACK (fast)
  Determining occupation numbers for Kohn-Sham eigenstates.
  | Chemical potential (Fermi level) in eV                 : -.18575921E+01
  | Error in electron count due to remaining E_F inaccuracy: -.81001872E-12
  | Maximum occupation number of highest empty state:  0.00E+00

  Highest occupied state (VBM) at     -7.54755777 eV
  | Occupation number:      2.00000000

  Lowest unoccupied state (CBM) at    -1.85759208 eV
  | Occupation number:      1.00000000

  Overall HOMO-LUMO gap:      5.68996569 eV.

  Total energy components:
  | Sum of eigenvalues            :        -210.24601977 Ha       -5721.08528368 eV
  | XC energy correction          :         -46.90564608 Ha       -1276.36757061 eV
  | XC potential correction       :          59.96623321 Ha        1631.76422882 eV
  | Free-atom electrostatic energy:        -178.41911477 Ha       -4855.03113417 eV
  | Hartree energy correction     :          -7.68650658 Ha        -209.16048612 eV
[...]
   Van der Waals               : 0.906150E-03 0.179796E-02 -.928656E-03
   ----------------------------------------------------------------
   Total forces(   7)            : 0.204068E+00 0.465265E+00 0.304323E+00
  atom #    8
   Hellmann-Feynman + Multipole  : -.616364E+01 -.679958E+01 0.887117E+01
   Pulay + GGA                   : 0.646883E+01 0.601433E+01 -.640126E+01
   Van der Waals               : -.298919E-02 -.434882E-03 -.255847E-02
   ----------------------------------------------------------------
   Total forces(   8)            : 0.302202E+00 -.785684E+00 0.246735E+01
  atom #    9
   Hellmann-Feynman + Multipole  : 0.715033E-01 0.277977E+00 0.252391E+00
   Pulay + GGA                   : 0.521774E-01 0.734115E-01 0.119096E-01
   Van der Waals               : 0.172122E-02 -.180528E-03 0.173182E-02
   ----------------------------------------------------------------
   Total forces(   9)            : 0.125402E+00 0.351208E+00 0.266032E+00
  atom #   10
   Hellmann-Feynman + Multipole  : -.294829E+00 0.308728E+00 -.245196E+01
   Pulay + GGA                   : -.309584E-01 0.267920E-01 -.121512E+00
   Van der Waals               : 0.315482E-02 0.789665E-03 0.314527E-02
   ----------------------------------------------------------------
   Total forces(  10)            : -.322633E+00 0.336309E+00 -.257033E+01
  atom #   11
   Hellmann-Feynman + Multipole  : -.439339E+01 0.229987E+01 -.944331E+01
   Pulay + GGA                   : 0.592423E+01 -.247819E+01 0.102131E+02
   Van der Waals               : -.185330E-02 0.403176E-02 0.167119E-02
   ----------------------------------------------------------------
   Total forces(  11)            : 0.152898E+01 -.174289E+00 0.771435E+00
  atom #   12
   Hellmann-Feynman + Multipole  : -.108522E+00 -.329068E+00 -.613096E+00
   Pulay + GGA                   : 0.302704E-02 0.102285E+00 0.132311E+00
   Van der Waals               : 0.277330E-03 0.381383E-02 0.791977E-03
   ----------------------------------------------------------------
   Total forces(  12)            : -.105217E+00 -.222969E+00 -.479993E+00
  atom #   13
   Hellmann-Feynman + Multipole  : -.127953E+01 0.681829E+00 -.262601E+00
   Pulay + GGA                   : 0.124840E+00 -.736382E-01 0.153856E-01
   Van der Waals               : -.266302E-02 0.195028E-02 0.146514E-02
   ----------------------------------------------------------------
   Total forces(  13)            : -.115735E+01 0.610141E+00 -.245750E+00
  atom #   14
   Hellmann-Feynman + Multipole  : -.121738E+02 -.278669E+01 0.298595E+01
   Pulay + GGA                   : 0.126856E+02 0.400582E+01 -.367721E+01
   Van der Waals               : 0.363292E-02 -.800605E-02 0.164837E-02
   ----------------------------------------------------------------
   Total forces(  14)            : 0.515402E+00 0.121112E+01 -.689615E+00
  atom #   15
   Hellmann-Feynman + Multipole  : -.651143E-01 -.141082E+00 0.993068E-01
   Pulay + GGA                   : 0.125481E+00 -.746850E-01 0.618875E-01
   Van der Waals               : -.296441E-03 -.446468E-02 0.144581E-02
   ----------------------------------------------------------------
   Total forces(  15)            : 0.600699E-01 -.220232E+00 0.162640E+00
  atom #   16
   Hellmann-Feynman + Multipole  : -.617944E+00 -.120023E+01 0.546944E+00
   Pulay + GGA                   : 0.439321E-01 0.119993E+00 -.639984E-01
   Van der Waals               : 0.572881E-04 -.483810E-02 -.615003E-03
   ----------------------------------------------------------------
   Total forces(  16)            : -.573954E+00 -.108508E+01 0.482330E+00
  Timings for vdw_correction_hirshfeld (Tkatchenko-Scheffler 2009):
  | CPU time:        5.762 s, Wall clock time:        5.763 s.
  Removing unitary transformations (pure translations, rotations) from forces on atoms.
  Atomic forces before filtering:
  | Net force on center of mass :  0.359660E-02 -.565205E-02 -.606922E-02 eV/A
  | Net torque on center of mass:  0.129328E-01 0.984318E-02 -.133317E-01 eV
  Atomic forces after filtering:
  | Net force on center of mass :  0.000000E+00 0.000000E+00 -.713624E-15 eV/A
  | Net torque on center of mass:  0.151054E-14 -.188817E-15 0.207699E-14 eV
 
  Energy and forces in a compact form:
  | Total energy uncorrected      :         -0.104299733004658E+05 eV
  | Total energy corrected        :         -0.104299761214137E+05 eV  <-- do not rely on this value for anything but (periodic) metals
  | Electronic free energy        :         -0.104299789423617E+05 eV
  Total atomic forces (unitary forces cleaned) [eV/Ang]:
  |   1         -0.110239684452727E+01          0.117811071164172E+01         -0.117169647731012E+01
  |   2          0.382101747209508E+00         -0.930553572251526E+00          0.293314507569203E+00
  |   3          0.431860374383849E+00         -0.122516782032036E+00         -0.360125858535251E-01
  |   4          0.425826585324946E-01         -0.104954102512828E+00          0.389912985275354E+00
  |   5         -0.310481930658352E+00         -0.153012480991035E+01         -0.102971310974318E+01
  |   6         -0.174142998735925E-01          0.102076302198930E+01          0.108283651715774E+01
  |   7          0.203825542713524E+00          0.465670854073431E+00          0.304743071658080E+00
  |   8          0.302134426522784E+00         -0.785887503079960E+00          0.246727967421272E+01
  |   9          0.125083337428384E+00          0.351167262839199E+00          0.265920329899519E+00
  |  10         -0.322524901350424E+00          0.335915549800776E+00         -0.257045852206841E+01
  |  11          0.152901546377943E+01         -0.173562186578354E+00          0.772417450423134E+00
  |  12         -0.105498892892985E+00         -0.222086761416747E+00         -0.479105529563000E+00
  |  13         -0.115722128913046E+01          0.611067267051627E+00         -0.244477993599877E+00
  |  14          0.514568329995848E+00          0.121143802770990E+01         -0.689779940284218E+00
  |  15          0.592436320575350E-01         -0.219678306505414E+00          0.162732719082673E+00
  |  16         -0.574877354190271E+00         -0.108476867081874E+01          0.482086903143904E+00
 
  ------------------------------------ 
  Start decomposition of the XC Energy 
  ------------------------------------ 
  Hartree-Fock part   :          0.000000000 Ha              0.000000000 eV
  ------------------------------------ 
  X Energy            :        -45.240800204 Ha          -1231.064809448 eV
  C Energy GGA        :         -1.665422244 Ha            -45.318445046 eV
  Total XC Energy     :        -46.906222449 Ha          -1276.383254493 eV
  LDA X and C from self-consistent density 
  X Energy LDA        :        -40.795877380 Ha          -1110.112305404 eV
  C Energy LDA        :         -3.341551656 Ha            -90.928246937 eV
  ------------------------------------ 
  End decomposition of the XC Energy 
  ------------------------------------ 
  Performing Hirshfeld analysis of fragment charges and moments.
  ----------------------------------------------------------------------
  | Atom     1: O
  |   Hirshfeld charge        :     -0.15744607
  |   Free atom volume        :     23.95238533
  |   Hirshfeld volume        :     21.17533773
  |   Hirshfeld dipole vector :      0.00482472       0.02732624       0.01989723
  |   Hirshfeld dipole moment :      0.03414530
  |   Hirshfeld second moments:      0.08274696      -0.00757384      -0.00749312
  |                                 -0.00757384       0.05105945      -0.02461098
  |                                 -0.00749312      -0.02461098       0.06501193
  ----------------------------------------------------------------------
  | Atom     2: H
  |   Hirshfeld charge        :      0.11790145
  |   Free atom volume        :     10.44207651
  |   Hirshfeld volume        :      8.68927546
  |   Hirshfeld dipole vector :     -0.00675730       0.01292541      -0.00823676
  |   Hirshfeld dipole moment :      0.01675027
  |   Hirshfeld second moments:      0.06390269       0.02375697      -0.00500277
  |                                  0.02375697       0.03873476       0.01300420
  |                                 -0.00500277       0.01300420       0.07958794
  ----------------------------------------------------------------------
  | Atom     3: H
  |   Hirshfeld charge        :      0.09991253
  |   Free atom volume        :     10.44207651
  |   Hirshfeld volume        :      9.29180859
  |   Hirshfeld dipole vector :      0.01442125       0.00295333      -0.00044723
  |   Hirshfeld dipole moment :      0.01472734
  |   Hirshfeld second moments:      0.02155069      -0.01968294      -0.00415135
  |                                 -0.01968294       0.06339013       0.00120669
  |                                 -0.00415135       0.00120669       0.06128058
  ----------------------------------------------------------------------
  | Atom     4: H
  |   Hirshfeld charge        :      0.10491644
  |   Free atom volume        :     10.44207651
  |   Hirshfeld volume        :      9.03592737
  |   Hirshfeld dipole vector :     -0.01915374      -0.00358808       0.01582755
  |   Hirshfeld dipole moment :      0.02510481
  |   Hirshfeld second moments:      0.07232639       0.00632581       0.00745859
  |                                  0.00632581       0.07151775       0.00205130
  |                                  0.00745859       0.00205130       0.01942039
  ----------------------------------------------------------------------
  | Atom     5: O
  |   Hirshfeld charge        :     -0.22571690
  |   Free atom volume        :     23.95238533
  |   Hirshfeld volume        :     22.37118062
  |   Hirshfeld dipole vector :     -0.02929251       0.01664587      -0.01040718
  |   Hirshfeld dipole moment :      0.03526252
  |   Hirshfeld second moments:      0.01660847       0.04920395      -0.01436352
  |                                  0.04920395       0.02931652       0.01729448
  |                                 -0.01436352       0.01729448       0.05227103
  ----------------------------------------------------------------------
  | Atom     6: H
  |   Hirshfeld charge        :      0.09464565
  |   Free atom volume        :     10.44207651
  |   Hirshfeld volume        :     12.22565812
  |   Hirshfeld dipole vector :     -0.00150487       0.03313179       0.02731453
  |   Hirshfeld dipole moment :      0.04296584
  |   Hirshfeld second moments:     -0.00924435       0.00653782      -0.01606948
  |                                  0.00653782      -0.01417776      -0.01231076
  |                                 -0.01606948      -0.01231076       0.03237604
  ----------------------------------------------------------------------
  | Atom     7: H
  |   Hirshfeld charge        :      0.13041498
  |   Free atom volume        :     10.44207651
  |   Hirshfeld volume        :      9.89035523
  |   Hirshfeld dipole vector :     -0.06914669      -0.04938049       0.00820834
  |   Hirshfeld dipole moment :      0.08536436
  |   Hirshfeld second moments:      0.03693817       0.01765891       0.00070630
  |                                  0.01765891       0.05657185       0.01011639
  |                                  0.00070630       0.01011639       0.06333714
  ----------------------------------------------------------------------
  | Atom     8: O
  |   Hirshfeld charge        :     -0.20973015
  |   Free atom volume        :     23.95238533
  |   Hirshfeld volume        :     21.32920001
  |   Hirshfeld dipole vector :      0.03173001       0.00235965      -0.01876543
  |   Hirshfeld dipole moment :      0.03693918
  |   Hirshfeld second moments:      0.01770190      -0.00088450       0.03041798
  |                                 -0.00088450       0.07036320       0.00295456
  |                                  0.03041798       0.00295456       0.07728383
  ----------------------------------------------------------------------
  | Atom     9: H
  |   Hirshfeld charge        :      0.10440570
  |   Free atom volume        :     10.44207651
  |   Hirshfeld volume        :      9.18445662
  |   Hirshfeld dipole vector :      0.01604121       0.03127959       0.00382364
  |   Hirshfeld dipole moment :      0.03536034
  |   Hirshfeld second moments:      0.04318284      -0.02148913       0.00618886
  |                                 -0.02148913       0.05053076      -0.02078156
  |                                  0.00618886      -0.02078156       0.06074040
  ----------------------------------------------------------------------
  | Atom    10: H
  |   Hirshfeld charge        :      0.14199666
  |   Free atom volume        :     10.44207651
  |   Hirshfeld volume        :      8.51466316
  |   Hirshfeld dipole vector :     -0.01504785       0.00954814      -0.09177849
  |   Hirshfeld dipole moment :      0.09349276
  |   Hirshfeld second moments:      0.07027208      -0.00062624       0.00847585
  |                                 -0.00062624       0.09666755       0.00500825
  |                                  0.00847585       0.00500825       0.07199951
  ----------------------------------------------------------------------
  | Atom    11: O
  |   Hirshfeld charge        :     -0.23644989
  |   Free atom volume        :     23.95238533
  |   Hirshfeld volume        :     23.49508575
  |   Hirshfeld dipole vector :     -0.01669375      -0.03595002       0.02788274
  |   Hirshfeld dipole moment :      0.04846166
  |   Hirshfeld second moments:      0.03923200      -0.02218989       0.00834938
  |                                 -0.02218989       0.00512582       0.04361180
  |                                  0.00834938       0.04361180      -0.03169324
  ----------------------------------------------------------------------
  | Atom    12: H
  |   Hirshfeld charge        :      0.04143615
  |   Free atom volume        :     10.44207651
  |   Hirshfeld volume        :     13.97323268
  |   Hirshfeld dipole vector :     -0.02058984      -0.00360709      -0.00153506
  |   Hirshfeld dipole moment :      0.02095970
  |   Hirshfeld second moments:      0.00633007      -0.03035619      -0.00639422
  |                                 -0.03035619      -0.03616296      -0.00605002
  |                                 -0.00639422      -0.00605002      -0.09384130
  ----------------------------------------------------------------------
  | Atom    13: H
  |   Hirshfeld charge        :      0.10044495
  |   Free atom volume        :     10.44207651
  |   Hirshfeld volume        :     11.93222775
  |   Hirshfeld dipole vector :      0.04582467      -0.04971048      -0.00769516
  |   Hirshfeld dipole moment :      0.06804593
  |   Hirshfeld second moments:      0.02410708      -0.00223588      -0.00437986
  |                                 -0.00223588       0.01573064       0.02297747
  |                                 -0.00437986       0.02297747      -0.00373899
  ----------------------------------------------------------------------
  | Atom    14: O
  |   Hirshfeld charge        :     -0.26592193
  |   Free atom volume        :     23.95238533
  |   Hirshfeld volume        :     23.45346395
  |   Hirshfeld dipole vector :      0.02309860      -0.00403862      -0.03707671
  |   Hirshfeld dipole moment :      0.04386956
  |   Hirshfeld second moments:     -0.00637100       0.00580020       0.03704434
  |                                  0.00580020       0.03818946      -0.02340794
  |                                  0.03704434      -0.02340794      -0.03714164
  ----------------------------------------------------------------------
  | Atom    15: H
  |   Hirshfeld charge        :      0.05310996
  |   Free atom volume        :     10.44207651
  |   Hirshfeld volume        :     12.90271741
  |   Hirshfeld dipole vector :      0.01955968      -0.01912999      -0.01075531
  |   Hirshfeld dipole moment :      0.02939752
  |   Hirshfeld second moments:     -0.04333340       0.00683367      -0.00166155
  |                                  0.00683367       0.03272726       0.00684378
  |                                 -0.00166155       0.00684378      -0.04623715
  ----------------------------------------------------------------------
  | Atom    16: H
  |   Hirshfeld charge        :      0.10611729
  |   Free atom volume        :     10.44207651
  |   Hirshfeld volume        :     10.67482029
  |   Hirshfeld dipole vector :      0.00925745       0.07242444      -0.03889821
  |   Hirshfeld dipole moment :      0.08272889
  |   Hirshfeld second moments:      0.02893237      -0.00353133       0.01864524
  |                                 -0.00353133       0.05123685      -0.00758542
  |                                  0.01864524      -0.00758542       0.02325651
  ----------------------------------------------------------------------


------------------------------------------------------------------------------
  Final output of selected total energy values:

  The following output summarizes some interesting total energy values
  at the end of a run (AFTER all relaxation, molecular dynamics, etc.).

  | Total energy of the DFT / Hartree-Fock s.c.f. calculation      :         -10429.973300466 eV
  | Final zero-broadening corrected energy (caution - metals only) :         -10429.976121414 eV
  | For reference only, the value of 1 Hartree used in FHI-aims is :             27.211384500 eV

  Before relying on these values, please be sure to understand exactly which
  total energy value is referred to by a given number. Different objects may
  all carry the same name 'total energy'. Definitions:

  Total energy of the DFT / Hartree-Fock s.c.f. calculation:
  | Note that this energy does not include ANY quantities calculated after the
  | s.c.f. cycle, in particular not ANY RPA, MP2, etc. many-body perturbation terms.

  Final zero-broadening corrected energy:
  | For metallic systems only, a broadening of the occupation numbers at the Fermi
  | level can be extrapolated back to zero broadening by an electron-gas inspired
  | formula. For all systems that are not real metals, this value can be
  | meaningless and should be avoided.

------------------------------------------------------------------------------

------------------------------------------------------------
          Leaving FHI-aims.
          Date     :  20150727, Time     :  115717.980

          Computational steps:
          | Number of self-consistency cycles          :           16

          Detailed time accounting                     :  max(cpu_time)    wall_clock(cpu1)
          | Total time                                 :       42.495 s          42.524 s
          | Preparation time                           :        0.172 s           0.743 s
          | Grid partitioning                          :        0.167 s           0.167 s
          | Preloading free-atom quantities on grid    :        0.013 s           0.014 s
          | Free-atom superposition energy             :        0.072 s           0.072 s
          | Total time for integrations                :       18.775 s          18.775 s
          | Total time for solution of K.-S. equations :        1.121 s           1.128 s
          | Total time for density & force components  :       13.902 s          13.905 s
          | Total time for mixing                      :        0.218 s           0.215 s
          | Total time for Hartree multipole update    :        0.079 s           0.078 s
          | Total time for Hartree multipole sum       :        7.075 s           7.077 s
          | Total time for total energy evaluation     :        0.006 s           0.002 s
          | Total time for scaled ZORA corrections     :        0.000 s           0.000 s
          | Total time for TS (2009) vdW correction    :        0.059 s           0.058 s

          Have a nice day.
------------------------------------------------------------
