  MPI-parallelism will be employed.
------------------------------------------------------------
          Invoking FHI-aims ...
          Version 081213
          Compiled on 2013/08/29 at 17:41:06 on host generoso.

          When using FHI-aims, please cite the following reference:

          Volker Blum, Ralf Gehrke, Felix Hanke, Paula Havu,
          Ville Havu, Xinguo Ren, Karsten Reuter, and Matthias Scheffler,
          'Ab Initio Molecular Simulations with Numeric Atom-Centered Orbitals: FHI-aims',
          Computer Physics Communications 180, 2175-2196 (2009)

          For any questions about FHI-aims, please visit the aimsclub website
          with its forums and wiki. Contributions to both the forums and the
          wiki are warmly encouraged - they are for you, and everyone is welcome there.

------------------------------------------------------------

  Date     :  20150727, Time     :  130248.325
  Time zero on CPU 1             :   0.379930000000000E-01  s.
  Internal wall clock time zero  :           207234168.325  s.

  Using        8 parallel tasks.
  Task        0 on host gen59 reporting.
  Task        1 on host gen59 reporting.
  Task        2 on host gen59 reporting.
  Task        3 on host gen59 reporting.
  Task        4 on host gen59 reporting.
  Task        5 on host gen59 reporting.
  Task        6 on host gen59 reporting.
  Task        7 on host gen59 reporting.

  Performing system and environment tests:
  | Environment variable OMP_NUM_THREADS correctly set to 1.
  | Checking for scalapack...
  | No scalapack compiled in.

  Obtaining array dimensions for all initial allocations:
  
  -----------------------------------------------------------------------
  Parsing control.in (first pass over file, find array dimensions only).
  The contents of control.in will be repeated verbatim below
  unless switched off by setting 'verbatim_writeout .false.' .
  in the first line of control.in .
  -----------------------------------------------------------------------
  
  #########################################################################################
  #
  #  Volker Blum, FHI 2008 : Test run input file control.in
  #
  #########################################################################################
  #
  #  Physical model
  #
    xc                 rpbe
    spin               none
    relativistic       atomic_zora scalar
    charge             0.
   vdw_correction_hirshfeld
  #
  #  SCF convergence
  #
    occupation_type    gaussian 0.01
    mixer              pulay
      n_max_pulay        10
      charge_mix_param   0.1
    sc_accuracy_rho    5E-5
    sc_accuracy_eev    5E-3
    sc_accuracy_etot   5E-6
    sc_iter_limit      3000
  #
  #  Eigenvalue solver
  #
    KS_method          lapack
      empty_states       8
      basis_threshold    0.e-5
  #
  #  Efficiency
  #
  #   all previous settings are now default, except stratmann still
  #   undecided. Continue to handle stratmann with care, if at all.
  #
  #  partition_type stratmann
    partition_type rho_r2
  #  hartree_partition_type stratmann
  #
  #  Oprions for large clusters (100's of atoms: memory saving / better scaling)
  #
  # for periodic systems:
  #
    density_update_method orbital
    packed_matrix_format none
  #  k_grid 6 6 6
  #  output k_eigenvalue 1
  #  distributed_spline_storage .true.
  #
  #  Relaxation
  #
  #  relax_geometry   bfgs 5.e-3
    sc_accuracy_forces 5.E-4
    final_forces_cleaned .true.
  #
  #  Output options
  #
  #  output mulliken
    output Hirshfeld
  #  output dipole
  
  #harmonic_length_scale 0.001
  
  ################################################################################
  #
  #  FHI-aims code project
  #  VB, Fritz-Haber Institut, 2007
  #
  #  Suggested "safe" defaults for H atom (to be pasted into control.in file)
  #  Basis constructed for a non-relativistic H2 molecule using the
  #  PW-LDA functional.
  #
  ################################################################################
    species        H
  #     global species definitions
      nucleus             1
      cut_pot             4.0  2.0  1.0
      cut_free_atom       finite 8.0
      logarithmic         0.00010000 100.00  1.0123
      basis_dep_cutoff    1d-4  # 1d-4 is safe default - please check 5d-4 if you wish!
      radial_base         24 7.0
      radial_multiplier   2
      angular_grids       specified
        division   0.2783  110
        division   0.3822  194
        division   0.5626  302
  #      division   0.5922  434
  #      division   0.6227  590
  #      division   0.7206  770
        outer_grid  302
      l_hartree           4
  ################################################################################
  #
  #  Definition of "minimal" basis
  #
  ################################################################################
  #     valence basis states
      valence      1  s   1.
  #     ion occupancy
      ion_occ      1  s   0.5
  ################################################################################
  #
  #  Suggested additional basis functions. For production calculations,
  #  uncomment them one after another (the most important basis functions are
  #  listed first).
  #
  ################################################################################
  #  "First tier" - improvements: -1014.90 meV to -62.69 meV
       hydro 2 s 2.1
       hydro 2 p 3.5
  #  "Second tier" - improvements: -12.89 meV to -1.83 meV
       hydro 1 s 0.85
       hydro 2 p 3.7
       hydro 2 s 1.2
       hydro 3 d 7
  #  "Third tier" - improvements: -0.25 meV to -0.12 meV
  #     hydro 4 f 11.2
  #     hydro 3 p 4.8
  #     hydro 4 d 9
  #     hydro 3 s 3.2
  
  ################################################################################
  #
  #  FHI-aims code project
  #  VB, Fritz-Haber Institut, 2007
  #
  #  Suggested "safe" defaults for O atom (to be pasted into control.in file)
  #  All values have been tested for a non-relativistic, non-spinpolarized O2
  #  molecule using the PW-LDA functional. Validity for PBE is expected.
  #
  #  Constructed for dimers: 1.0 A, 1.208 A, 1.5 A, 2.0 A, 3.0 A
  #
  ################################################################################
    species        O
  #     global species definitions
      nucleus             8
      mass                15.9994
      l_hartree           4
      cut_pot             4.0  2.0  1.0
      cut_free_atom       finite 8.0
      basis_dep_cutoff    1d-4  # 1d-4 is safe default - please check 5d-4 if you wish!
      logarithmic         0.00010000 100.00  1.0123
      radial_base         36 7.0
      radial_multiplier   2
       angular_grids specified
        division   0.4087  110
        division   0.5181  194
        division   0.6184  302
  #      division   0.7315  434
  #      division   0.7934  590
  #      division   0.9656  770
  #      division   1.4041  974
  #      outer_grid 974
        outer_grid 302
  ################################################################################
  #
  #  Definition of "minimal" basis
  #
  ################################################################################
  #     valence basis states
      valence      2  s   2.
      valence      2  p   4.
  #     ion occupancy
      ion_occ      2  s   1.
      ion_occ      2  p   3.
  ################################################################################
  #
  #  Suggested additional basis functions. For production calculations,
  #  uncomment them one after another (the most important basis functions are
  #  listed first).
  #
  ################################################################################
  #  "First tier" - improvements: -699.05 meV to -159.38 meV
       hydro 2 p 1.8
       hydro 3 d 7.6
       hydro 3 s 6.4
  #  "Second tier" - improvements: -49.91 meV to -5.39 meV
       hydro 4 f 11.6
       hydro 3 p 6.2
       hydro 3 d 5.6
       hydro 5 g 17.6
       hydro 1 s 0.75
  #  "Third tier" - improvements: -2.83 meV to -0.50 meV
  #     ionic 2 p auto
  #     hydro 4 f 10.8
  #     hydro 4 d 4.7
  #     hydro 2 s 6.8
  #  "Fourth tier" - improvements: -0.40 meV to -0.12 meV
  #     hydro 3 p 5
  #     hydro 3 s 3.3
  #     hydro 5 g 15.6
  #     hydro 4 f 17.6
  #     hydro 4 d 14
  # Further basis functions - -0.08 meV and below
  #     hydro 3 s 2.1
  #     hydro 4 d 11.6
  #     hydro 3 p 16
  #     hydro 2 s 17.2
  
  
  -----------------------------------------------------------------------
  Completed first pass over input file control.in .
  -----------------------------------------------------------------------
  
  
  -----------------------------------------------------------------------
  Parsing geometry.in (first pass over file, find array dimensions only).
  The contents of geometry.in will be repeated verbatim below
  unless switched off by setting 'verbatim_writeout .false.' .
  in the first line of geometry.in .
  -----------------------------------------------------------------------
  
  atom      -4.053030000      0.065001000     -1.525160000  O
  atom      -4.566710000      0.974813000     -1.912820000  H
  atom      -3.067820000      0.330172000     -1.477310000  H
  atom      -4.370360000     -0.049164000     -0.572274000  H
  atom      -3.818880000      2.024990000      2.187990000  O
  atom      -3.690880000      1.961360000      3.202150000  H
  atom      -4.546490000      2.751300000      2.045370000  H
  atom      -4.066610000      4.258280000     -0.900064000  O
  atom      -3.224110000      3.876870000     -0.569443000  H
  atom      -3.737450000      5.116530000     -1.322720000  H
  atom      -5.628340000      3.730740000      1.385610000  O
  atom      -6.090650000      4.418470000      1.860350000  H
  atom      -5.158540000      4.200260000      0.615875000  H
  
  -----------------------------------------------------------------------
  Completed first pass over input file geometry.in .
  -----------------------------------------------------------------------
  
 
  Basic array size parameters: 
  | Number of species                 :        2
  | Number of atoms                   :       13
  | Max. basis fn. angular momentum   :        4
  | Max. atomic/ionic basis occupied n:        2
  | Max. number of basis fn. types    :        2
  | Max. radial fns per species/type  :        8
  | Max. logarithmic grid size        :     1301
  | Max. radial integration grid size :       73
  | Max. angular integration grid size:      302
  | Max. angular grid division number :        8
  | Radial grid for Hartree potential :     1301
  | Number of spin channels           :        1

------------------------------------------------------------
          Reading file control.in.
------------------------------------------------------------
  XC: Using RPBE gradient-corrected functionals.
  Spin treatment: No spin polarisation.
  Scalar relativistic treatment of kinetic energy: on-site free-atom approximation to ZORA.
  Charge =   0.000000E+00: Neutral system requested explicitly.
  Using non-empirical van der Waals correction (Hirshfeld partitioning):
  Occupation type: Gaussian broadening, width =   0.100000E-01 eV.
  Using pulay charge density mixing.
  Pulay mixing - number of memorized iterations:   10
  Charge density mixing - mixing parameter:     0.1000
  Convergence accuracy of self-consistent charge density: 0.5000E-04
  Convergence accuracy of sum of eigenvalues: 0.5000E-02
  Convergence accuracy of total energy: 0.5000E-05
  Maximum number of s.-c. iterations  :  3000
  Kohn-Sham eigenvalues and eigenfunctions calculated by lapack diagonalisation (D&C).
  Number of empty states per atom:        8
  Threshold for basis singularities: 0.0000E+00
  Partition function in integrals calculations: rho / r^2
 Using packed matrix format           0
  Convergence accuracy of forces: 0.5000E-03
  Cleaning forces before final output.
  Hirshfeld charge analysis will be performed.
 
  Reading configuration options for species H                   .
  | Found nuclear charge :   1.0000
  | Found cutoff potl. onset [A], width [A], scale factor :    4.00000    2.00000    1.00000
  | Found cutoff specification for free atom: Cutoff potential begins at    8.00000 A.
  | Found logarithmic grid data [bohr] : 0.1000E-03 0.1000E+03 0.1012E+01
  | Threshold for basis-dependent cutoff potential is   0.100000E-03
  | Found data for basic radial integration grid :    24 points, outermost radius =    7.000 A
  | Found multiplier for basic radial grid :   2
  | Found angular grid specification: user-specified.
  | Specified grid contains     4 separate shells.
  | Check grid settings after all constraints further below.
  | Found l_max for Hartree potential  :   4
  | Found free-atom valence shell :  1 s   1.000
  | No ionic wave fns used. Skipping ion_occ.
  | Found hydrogenic basis function :  2 s   2.100
  | Found hydrogenic basis function :  2 p   3.500
  | Found hydrogenic basis function :  1 s   0.850
  | Found hydrogenic basis function :  2 p   3.700
  | Found hydrogenic basis function :  2 s   1.200
  | Found hydrogenic basis function :  3 d   7.000
  Species H                   : Missing cutoff potential type.
  Defaulting to exp(1/x)/(1-x)^2 type cutoff potential.
  Species H : On-site basis accuracy parameter (for Gram-Schmidt orthonormalisation) not specified.
  Using default value basis_acc =  0.1000000E-03.
  Species H                   : Using default innermost maximum threshold i_radial=  2 for radial functions.
  Species H                   : Basic radial grid will be enhanced according to radial_multiplier =   2, to contain    49 grid points.
 
  Reading configuration options for species O                   .
  | Found nuclear charge :   8.0000
  | Found atomic mass :    15.9994000000000      amu
  | Found l_max for Hartree potential  :   4
  | Found cutoff potl. onset [A], width [A], scale factor :    4.00000    2.00000    1.00000
  | Found cutoff specification for free atom: Cutoff potential begins at    8.00000 A.
  | Threshold for basis-dependent cutoff potential is   0.100000E-03
  | Found logarithmic grid data [bohr] : 0.1000E-03 0.1000E+03 0.1012E+01
  | Found data for basic radial integration grid :    36 points, outermost radius =    7.000 A
  | Found multiplier for basic radial grid :   2
  | Found angular grid specification: user-specified.
  | Specified grid contains     4 separate shells.
  | Check grid settings after all constraints further below.
  | Found free-atom valence shell :  2 s   2.000
  | Found free-atom valence shell :  2 p   4.000
  | No ionic wave fns used. Skipping ion_occ.
  | No ionic wave fns used. Skipping ion_occ.
  | Found hydrogenic basis function :  2 p   1.800
  | Found hydrogenic basis function :  3 d   7.600
  | Found hydrogenic basis function :  3 s   6.400
  | Found hydrogenic basis function :  4 f  11.600
  | Found hydrogenic basis function :  3 p   6.200
  | Found hydrogenic basis function :  3 d   5.600
  | Found hydrogenic basis function :  5 g  17.600
  | Found hydrogenic basis function :  1 s   0.750
  Species O                   : Missing cutoff potential type.
  Defaulting to exp(1/x)/(1-x)^2 type cutoff potential.
  Species O : On-site basis accuracy parameter (for Gram-Schmidt orthonormalisation) not specified.
  Using default value basis_acc =  0.1000000E-03.
  Species O                   : Using default innermost maximum threshold i_radial=  2 for radial functions.
  Species O                   : Basic radial grid will be enhanced according to radial_multiplier =   2, to contain    73 grid points.
 
  Finished reading input file 'control.in'. Consistency checks are next.
 
  Target number of points in a grid batch is not set. Defaulting to  100
  Method for grid partitioning is not set. Defaulting to parallel hash+maxmin partitioning.
  Batch size limit is not set. Defaulting to    200
  By default, will store active basis functions for each batch.
  If in need of memory, prune_basis_once .false. can be used to disable this option.
  communication_type for Hartree potential was not specified.
  Defaulting to calc_hartree .
  Pulay mixer: Number of initial linear mixing iterations not set.
  Defaulting to    0 iterations.
  Work space size for distributed Hartree potential not set.
  Defaulting to   0.200000E+03 MB.
  Algorithm-dependent basis array size parameters:
  | n_max_pulay                         :       10
  Geometry relaxation not requested: no relaxation will be performed.
  Handling of forces: Unphysical translation and rotation will be removed from forces.
  No accuracy limit for integral partition fn. given. Defaulting to 0.1000E-14.
  No threshold value for u(r) in integrations given. Defaulting to 0.1000E-05.
  No accuracy for occupation numbers given. Defaulting to 0.1000E-07.
  No threshold value for occupation numbers given. Defaulting to 0.0000E+00.
  No accuracy for fermi level given. Defaulting to 0.1000E-19.
  Maximum # of iterations to find E_F not set. Defaulting to  200.
  Will not use alltoall communication since running on < 1024 CPUs.
  Partitioning for Hartree potential was not defined. Using partition_type for integrals.
  | Reporting present value of keyword multip_moments_threshold  :       0.10000000E-09
  | This value may affect high angular momentum components of the Hartree potential in periodic systems.
  No q(lm)/r^(l+1) cutoff set for long-range Hartree potential.
  | Using default value of  0.100000E-09 .
  | Verify using the multipole_threshold keyword.
  Defaulting to new monopole extrapolation.
  Density update method: Loop over occupied states selected for charge density update.
------------------------------------------------------------


------------------------------------------------------------
          Reading geometry description geometry.in.
------------------------------------------------------------
  Input structure read successfully.
  The structure contains       13 atoms,  and a total of         41.000 electrons.

  Input geometry:
  | No unit cell requested.
  | Atomic structure:
  |       Atom                x [A]            y [A]            z [A]
  |    1: Species O             -4.053030         0.065001        -1.525160
  |    2: Species H             -4.566710         0.974813        -1.912820
  |    3: Species H             -3.067820         0.330172        -1.477310
  |    4: Species H             -4.370360        -0.049164        -0.572274
  |    5: Species O             -3.818880         2.024990         2.187990
  |    6: Species H             -3.690880         1.961360         3.202150
  |    7: Species H             -4.546490         2.751300         2.045370
  |    8: Species O             -4.066610         4.258280        -0.900064
  |    9: Species H             -3.224110         3.876870        -0.569443
  |   10: Species H             -3.737450         5.116530        -1.322720
  |   11: Species O             -5.628340         3.730740         1.385610
  |   12: Species H             -6.090650         4.418470         1.860350
  |   13: Species H             -5.158540         4.200260         0.615875
  |

  | The smallest distance between any two atoms is         0.95502940 AA.
  |
  | The first atom of this pair is atom number                     11 .
  | The second atom of this pair is atom number                    12 .

  Structure-dependent array size parameters: 
  | Maximum number of distinct radial functions  :       18
  | Maximum number of basis functions            :      291
  | Number of Kohn-Sham states (occupied + empty):       73
------------------------------------------------------------

------------------------------------------------------------
          Preparing all fixed parts of the calculation.
------------------------------------------------------------
  Determining machine precision:
    2.225073858507201E-308
  Setting up grids for atomic and cluster calculations.

  Creating wave function, potential, and density for free atoms.

  Species: H

  List of occupied orbitals and eigenvalues:
    n    l              occ      energy [Ha]    energy [eV]
    1    0           1.0000        -0.241408        -6.5691


  Species: O

  List of occupied orbitals and eigenvalues:
    n    l              occ      energy [Ha]    energy [eV]
    1    0           2.0000       -18.944147      -515.4965
    2    0           2.0000        -0.883529       -24.0421
    2    1           4.0000        -0.330176        -8.9845

  Creating fixed part of basis set: Ionic, confined, hydrogenic.
 
  H                    hydrogenic:
 
  List of hydrogenic basis orbitals: 
    n    l      effective z      eigenvalue [eV]  inner max. [A]     outer max. [A]     outer radius [A]   
    2    0         2.100000       -14.9965           0.193241           1.317192           5.372934
    2    1         3.500000       -41.6672           0.602363           0.602363           4.056010
    1    0         0.850000        -9.8292           0.624864           0.624864           5.372934
    2    1         3.700000       -46.5653           0.573616           0.573616           3.909951
    2    0         1.200000        -4.5995           0.334977           2.228160           5.505921
    3    2         7.000000       -74.0753           0.680692           0.680692           3.769152
 
 
  O                    hydrogenic:
 
  List of hydrogenic basis orbitals: 
    n    l      effective z      eigenvalue [eV]  inner max. [A]     outer max. [A]     outer radius [A]   
    2    1         1.800000       -11.0118           1.178546           1.178546           5.432516
    3    2         7.600000       -87.3182           0.624117           0.624117           3.541422
    3    0         6.400000       -61.9209           0.061166           1.081887           4.306510
    4    3        11.600000      -114.4238           0.731621           0.731621           3.584982
    3    1         6.200000       -58.1113           0.255677           1.030255           4.306510
    3    2         5.600000       -47.4081           0.847222           0.847222           4.413102
    5    4        17.600000      -168.5799           0.749730           0.749730           3.372413
    1    0         0.750000        -7.6499           0.705275           0.705275           5.366508
 

  Adding cutoff potential to free-atom effective potential.
  Creating atomic-like basis functions for current effective potential.

  Species H                   :

  List of atomic basis orbitals and eigenvalues:
    n    l      energy [Ha]    energy [eV]    outer radius [A]
    1    0        -0.241374        -6.5681       5.372934


  Species O                   :

  List of atomic basis orbitals and eigenvalues:
    n    l      energy [Ha]    energy [eV]    outer radius [A]
    1    0       -18.944147      -515.4965       1.415745
    2    0        -0.883529       -24.0421       5.048305
    2    1        -0.330173        -8.9845       5.301302

  Assembling full basis from fixed parts.
  | Species H :   atomic orbital   1 s accepted.
  | Species H :    hydro orbital   2 s accepted.
  | Species H :    hydro orbital   1 s accepted.
  | Species H :    hydro orbital   2 s accepted.
  | Species H :    hydro orbital   2 p accepted.
  | Species H :    hydro orbital   2 p accepted.
  | Species H :    hydro orbital   3 d accepted.
  | Species O :   atomic orbital   1 s accepted.
  | Species O :    hydro orbital   3 s accepted.
  | Species O :   atomic orbital   2 s accepted.
  | Species O :    hydro orbital   1 s accepted.
  | Species O :    hydro orbital   3 p accepted.
  | Species O :   atomic orbital   2 p accepted.
  | Species O :    hydro orbital   2 p accepted.
  | Species O :    hydro orbital   3 d accepted.
  | Species O :    hydro orbital   3 d accepted.
  | Species O :    hydro orbital   4 f accepted.
  | Species O :    hydro orbital   5 g accepted.
 
  Basis size parameters after reduction:
  | Total number of radial functions:       18
  | Total number of basis functions :      291
 
  Testing on-site integration grid accuracy.
  |  Species  Function  <phi|h_atom|phi> (log., in eV)  <phi|h_atom|phi> (rad., in eV)
           1        1                 -6.5683835025                 -6.5684759159
           1        2                 13.3711789951                 13.3708738703
           1        3                 23.6590910787                 23.6532055418
           1        4                 16.2963827186                 16.1870710655 ***
           1        5                 28.7627214838                 28.7627215090
           1        6                 59.5965249172                 59.5965950857
           1        7                 60.2220506392                 60.2220503827
           2        8               -515.4964576505               -515.4964530710
           2        9                 15.3030791347                 15.3030722972
           2       10                -21.7296094581                -21.7296135470
           2       11                 14.2969371730                 14.2969701621
           2       12                 21.0679693190                 21.0679697493
           2       13                 -2.3833606469                 -2.3833613176
           2       14                 13.7067136422                 13.7066766629
           2       15                 45.8013116808                 45.8013116965
           2       16                 52.2309815402                 52.2309831494
           2       17                 85.4120732416                 85.4120732763
           2       18                142.1019167745                142.1019167817
 * Note: Onsite integrals marked "***" above are less accurate than
 * onsite_accuracy_threshold =    0.03000 eV. Usually, this is harmless.
 * When in doubt, tighten the "radial" and/or "radial_multiplier" flags to check.

  Preparing densities etc. for the partition functions (integrals / Hartree potential).

  Preparations completed.
  max(cpu_time)          :      0.172 s.
  Wall clock time (cpu1) :      0.568 s.
------------------------------------------------------------

------------------------------------------------------------
          Begin self-consistency loop: Initialization.

          Date     :  20150727, Time     :  130248.917
------------------------------------------------------------

  Initializing index lists of integration centers etc. from given atomic structure:
  | Number of centers in hartree potential         :        13
  | Number of centers in hartree multipole         :        13
  | Number of centers in electron density summation:        13
  | Number of centers in basis integrals           :        13
  | Number of centers in integrals                 :        13
  Partitioning the integration grid into batches with parallel hashing+maxmin method.
  | Number of batches:     1700
  | Maximal batch size:     176
  | Minimal batch size:      51
  | Average batch size:      99.389
  | Standard deviation of batch sizes:      28.441

  Integration load balanced across     8 MPI tasks.
  Work distribution over tasks is as follows:
  Task     0 has      21132 integration points.
  Task     1 has      21120 integration points.
  Task     2 has      21174 integration points.
  Task     3 has      21110 integration points.
  Task     4 has      21130 integration points.
  Task     5 has      21110 integration points.
  Task     6 has      21122 integration points.
  Task     7 has      21064 integration points.
  Initializing partition tables, free-atom densities, potentials, etc. across the integration grid (initialize_grid_storage).
  | Net number of integration points:   168962
  | of which are non-zero points    :   168427
  Obtaining max. number of non-zero basis functions in each batch (get_n_compute_maxes).
  | Maximal number of non-zero basis functions:      288 in task     0
  | Maximal number of non-zero basis functions:      289 in task     1
  | Maximal number of non-zero basis functions:      289 in task     2
  | Maximal number of non-zero basis functions:      289 in task     3
  | Maximal number of non-zero basis functions:      288 in task     4
  | Maximal number of non-zero basis functions:      289 in task     5
  | Maximal number of non-zero basis functions:      289 in task     6
  | Maximal number of non-zero basis functions:      289 in task     7
  Integrating Hamiltonian matrix: batch-based integration.
  Time summed over all CPUs for integration: real work        4.938 s, elapsed        5.051 s
  Integrating overlap matrix.
  Time summed over all CPUs for integration: real work        2.582 s, elapsed        2.617 s

  Updating Kohn-Sham eigenvalues, eigenvectors, occupation numbers, and Fermi level.
  Solving generalized eigenproblem
  Updating Kohn-Sham eigenvalues and eigenfunctions.
  Transforming overlap matrix and checking for singularities.
  Overlap matrix is nonsingular:
  | Lowest eigenvalue:  0.342225E-03
  Solving real generalised eigenvalue problem by standard LAPACK (fast)
  Determining occupation numbers for Kohn-Sham eigenstates.
  | Chemical potential (Fermi level) in eV                 : -.30174790E+01
  | Error in electron count due to remaining E_F inaccuracy: 0.10658141E-11
  | Maximum occupation number of highest empty state:  0.00E+00

  Writing Kohn-Sham eigenvalues.

  State    Occupation    Eigenvalue [Ha]    Eigenvalue [eV]
      1       2.00000         -19.064656         -518.77568
      2       2.00000         -19.050617         -518.39366
      3       2.00000         -19.042515         -518.17321
      4       2.00000         -19.028902         -517.80276
      5       2.00000          -1.118638          -30.43969
      6       2.00000          -1.100402          -29.94345
      7       2.00000          -1.085670          -29.54259
      8       2.00000          -1.059672          -28.83515
      9       2.00000          -0.631746          -17.19069
     10       2.00000          -0.626749          -17.05470
     11       2.00000          -0.605148          -16.46691
     12       2.00000          -0.601071          -16.35598
     13       2.00000          -0.598790          -16.29392
     14       2.00000          -0.522485          -14.21755
     15       2.00000          -0.507065          -13.79794
     16       2.00000          -0.489264          -13.31356
     17       2.00000          -0.483026          -13.14380
     18       2.00000          -0.438795          -11.94022
     19       2.00000          -0.432223          -11.76138
     20       2.00000          -0.417311          -11.35560
     21       1.00000          -0.110890           -3.01748
     22       0.00000          -0.079576           -2.16537
     23       0.00000          -0.059304           -1.61375
     24       0.00000          -0.041468           -1.12839
     25       0.00000          -0.032048           -0.87207
     26       0.00000          -0.019112           -0.52008
     27       0.00000          -0.000563           -0.01532
     28       0.00000           0.034112            0.92825
     29       0.00000           0.055446            1.50877
     30       0.00000           0.063489            1.72763
     31       0.00000           0.068841            1.87326
     32       0.00000           0.082679            2.24980
     33       0.00000           0.087359            2.37717
     34       0.00000           0.090394            2.45975
     35       0.00000           0.096696            2.63124
     36       0.00000           0.102902            2.80011
     37       0.00000           0.115772            3.15032
     38       0.00000           0.127686            3.47451
     39       0.00000           0.137304            3.73624
     40       0.00000           0.148897            4.05170
     41       0.00000           0.160745            4.37409
     42       0.00000           0.172737            4.70042
     43       0.00000           0.192025            5.22526
     44       0.00000           0.207702            5.65186
     45       0.00000           0.229121            6.23469
     46       0.00000           0.239760            6.52420
     47       0.00000           0.254203            6.91721
     48       0.00000           0.271097            7.37693
     49       0.00000           0.285624            7.77224
     50       0.00000           0.308440            8.39307
     51       0.00000           0.321529            8.74926
     52       0.00000           0.331219            9.01294
     53       0.00000           0.351061            9.55286
     54       0.00000           0.364596            9.92115
     55       0.00000           0.370804           10.09010
     56       0.00000           0.372424           10.13416
     57       0.00000           0.377245           10.26536
     58       0.00000           0.389499           10.59880
     59       0.00000           0.411900           11.20837
     60       0.00000           0.435833           11.85962
     61       0.00000           0.442826           12.04992
     62       0.00000           0.465531           12.66773
     63       0.00000           0.486148           13.22877
     64       0.00000           0.500511           13.61961
     65       0.00000           0.505760           13.76242
     66       0.00000           0.528881           14.39158
     67       0.00000           0.544762           14.82374
     68       0.00000           0.565570           15.38995
     69       0.00000           0.616513           16.77616
     70       0.00000           0.658816           17.92731
     71       0.00000           0.709015           19.29329
     72       0.00000           0.721633           19.63664
     73       0.00000           0.732002           19.91879

  Highest occupied state (VBM) at     -3.01747902 eV
  | Occupation number:      1.00000000

  Lowest unoccupied state (CBM) at    -2.16537417 eV
  | Occupation number:      0.00000000

  Overall HOMO-LUMO gap:      0.85210485 eV.
  Calculating total energy contributions from superposition of free atom densities.

  Total energy components:
  | Sum of eigenvalues            :        -173.92038054 Ha       -4732.61434728 eV
  | XC energy correction          :         -36.76375476 Ha       -1000.39266639 eV
  | XC potential correction       :          46.97859430 Ha        1278.35259284 eV
  | Free-atom electrostatic energy:        -143.20454040 Ha       -3896.79381085 eV
  | Hartree energy correction     :           0.00000000 Ha           0.00000000 eV
  | van der Waals energy corr.    :           0.00000000 Ha           0.00000000 eV
  | Entropy correction            :          -0.00010367 Ha          -0.00282095 eV
  | ---------------------------
  | Total energy                  :        -306.91008139 Ha       -8351.44823168 eV
  | Total energy, T -> 0          :        -306.91018506 Ha       -8351.45105263 eV  <-- do not rely on this value for anything but (periodic) metals
  | Electronic free energy        :        -306.91028873 Ha       -8351.45387357 eV

  Derived energy quantities:
  | Kinetic energy                :         303.91825921 Ha        8270.03660796 eV
  | Electrostatic energy          :        -574.06458584 Ha      -15621.09217324 eV
  | Energy correction for multipole
  | error in Hartree potential    :           0.00000000 Ha           0.00000000 eV
  | Sum of eigenvalues per atom                           :        -364.04725748 eV
  | Total energy (T->0) per atom                          :        -642.41931174 eV  <-- do not rely on this value for anything but (periodic) metals
  | Electronic free energy per atom                       :        -642.41952874 eV
  Initialize hartree_potential_storage
  Max. number of atoms included in rho_multipole:           13

  End scf initialization - timings             :  max(cpu_time)    wall_clock(cpu1)
  | Time for scf. initialization               :        1.387 s           1.387 s
  | Boundary condition initialization          :        0.000 s           0.000 s
  | Integration                                :        0.962 s           0.961 s
  | Solution of K.-S. eqns.                    :        0.136 s           0.136 s
  | Grid partitioning                          :        0.123 s           0.123 s
  | Preloading free-atom quantities on grid    :        0.013 s           0.013 s
  | Free-atom superposition energy             :        0.052 s           0.052 s
  | Total energy evaluation                    :        0.001 s           0.001 s
------------------------------------------------------------

------------------------------------------------------------
          Begin self-consistency iteration #    1

  Date     :  20150727, Time     :  130250.304
------------------------------------------------------------
  Evaluating new KS density.
  Integration grid: deviation in total charge (<rho> - N_e) =   1.080025E-12
  Pulay mixing of updated and previous charge densities.

  Evaluating partitioned Hartree potential by multipole expansion.
  | Analytical far-field extrapolation by fixed multipoles:
  | Hartree multipole sum: apparent total charge =  -0.635158E-06
  Summing up the Hartree potential.
  Time summed over all CPUs for potential: real work        1.918 s, elapsed        1.928 s
  | RMS charge density error from multipole expansion :   0.144694E-02

  Integrating Hamiltonian matrix: batch-based integration.
  Time summed over all CPUs for integration: real work        4.916 s, elapsed        5.025 s

  Updating Kohn-Sham eigenvalues, eigenvectors, occupation numbers, and Fermi level.
  Solving generalized eigenproblem
  Updating Kohn-Sham eigenvalues and eigenfunctions.
  Solving real generalised eigenvalue problem by standard LAPACK (fast)
  Determining occupation numbers for Kohn-Sham eigenstates.
  | Chemical potential (Fermi level) in eV                 : -.28550059E+01
  | Error in electron count due to remaining E_F inaccuracy: -.13642421E-11
  | Maximum occupation number of highest empty state:  0.00E+00

  Writing Kohn-Sham eigenvalues.

  State    Occupation    Eigenvalue [Ha]    Eigenvalue [eV]
      1       2.00000         -19.016141         -517.45553
      2       2.00000         -18.976443         -516.37528
      3       2.00000         -18.970439         -516.21192
      4       2.00000         -18.944591         -515.50854
      5       2.00000          -1.097015          -29.85129
      6       2.00000          -1.063136          -28.92940
      7       2.00000          -1.050037          -28.57295
      8       2.00000          -1.014800          -27.61412
      9       2.00000          -0.608666          -16.56265
     10       2.00000          -0.599058          -16.30120
     11       2.00000          -0.580537          -15.79720
     12       2.00000          -0.574647          -15.63694
     13       2.00000          -0.563890          -15.34422
     14       2.00000          -0.484951          -13.19620
     15       2.00000          -0.470305          -12.79764
     16       2.00000          -0.466555          -12.69561
     17       2.00000          -0.440545          -11.98784
     18       2.00000          -0.398673          -10.84843
     19       2.00000          -0.394684          -10.73991
     20       2.00000          -0.371056          -10.09694
     21       1.00000          -0.104920           -2.85501
     22       0.00000          -0.071251           -1.93883
     23       0.00000          -0.050489           -1.37388
     24       0.00000          -0.034503           -0.93889
     25       0.00000          -0.024607           -0.66958
     26       0.00000          -0.013326           -0.36261
     27       0.00000           0.007294            0.19849
     28       0.00000           0.044400            1.20819
     29       0.00000           0.064449            1.75374
     30       0.00000           0.066898            1.82038
     31       0.00000           0.076243            2.07467
     32       0.00000           0.086343            2.34951
     33       0.00000           0.095100            2.58780
     34       0.00000           0.096912            2.63710
     35       0.00000           0.110762            3.01399
     36       0.00000           0.111240            3.02699
     37       0.00000           0.122967            3.34610
     38       0.00000           0.135179            3.67841
     39       0.00000           0.151355            4.11857
     40       0.00000           0.158549            4.31435
     41       0.00000           0.169457            4.61117
     42       0.00000           0.180919            4.92306
     43       0.00000           0.203264            5.53110
     44       0.00000           0.212398            5.77966
     45       0.00000           0.233222            6.34630
     46       0.00000           0.247014            6.72159
     47       0.00000           0.260777            7.09611
     48       0.00000           0.279531            7.60643
     49       0.00000           0.292668            7.96389
     50       0.00000           0.318090            8.65568
     51       0.00000           0.329924            8.97768
     52       0.00000           0.338791            9.21896
     53       0.00000           0.358022            9.74229
     54       0.00000           0.371505           10.10918
     55       0.00000           0.377106           10.26158
     56       0.00000           0.379504           10.32683
     57       0.00000           0.385904           10.50099
     58       0.00000           0.397033           10.80382
     59       0.00000           0.419249           11.40836
     60       0.00000           0.443158           12.05895
     61       0.00000           0.451572           12.28790
     62       0.00000           0.473208           12.87663
     63       0.00000           0.496118           13.50006
     64       0.00000           0.512131           13.93580
     65       0.00000           0.514444           13.99873
     66       0.00000           0.538959           14.66582
     67       0.00000           0.556361           15.13934
     68       0.00000           0.576992           15.70075
     69       0.00000           0.629349           17.12545
     70       0.00000           0.669539           18.21909
     71       0.00000           0.717669           19.52876
     72       0.00000           0.728443           19.82193
     73       0.00000           0.740579           20.15218

  Highest occupied state (VBM) at    -10.09693552 eV
  | Occupation number:      2.00000000

  Lowest unoccupied state (CBM) at    -2.85500590 eV
  | Occupation number:      1.00000000

  Overall HOMO-LUMO gap:      7.24192961 eV.

  Total energy components:
  | Sum of eigenvalues            :        -172.27725439 Ha       -4687.90260977 eV
  | XC energy correction          :         -36.93707640 Ha       -1005.10898826 eV
  | XC potential correction       :          47.20527442 Ha        1284.52087271 eV
  | Free-atom electrostatic energy:        -143.20454040 Ha       -3896.79381085 eV
  | Hartree energy correction     :          -1.59885394 Ha         -43.50702935 eV
  | van der Waals energy corr.    :           0.00000000 Ha           0.00000000 eV
  | Entropy correction            :          -0.00010367 Ha          -0.00282095 eV
  | ---------------------------
  | Total energy                  :        -306.81245070 Ha       -8348.79156552 eV
  | Total energy, T -> 0          :        -306.81255437 Ha       -8348.79438647 eV  <-- do not rely on this value for anything but (periodic) metals
  | Electronic free energy        :        -306.81265804 Ha       -8348.79720741 eV

  Derived energy quantities:
  | Kinetic energy                :         304.96758528 Ha        8298.59022308 eV
  | Electrostatic energy          :        -574.84295958 Ha      -15642.27280034 eV
  | Energy correction for multipole
  | error in Hartree potential    :           0.00035102 Ha           0.00955169 eV
  | Sum of eigenvalues per atom                           :        -360.60789306 eV
  | Total energy (T->0) per atom                          :        -642.21495281 eV  <-- do not rely on this value for anything but (periodic) metals
  | Electronic free energy per atom                       :        -642.21516980 eV

  Self-consistency convergence accuracy:
  | Change of charge density      : 0.5585E+00
  | Change of sum of eigenvalues  : 0.4471E+02 eV
  | Change of total energy        : 0.2657E+01 eV

  End self-consistency iteration #     1       :  max(cpu_time)    wall_clock(cpu1)
  | Time for this iteration                    :        1.368 s           1.367 s
  | Charge density update                      :        0.452 s           0.452 s
  | Density mixing                             :        0.003 s           0.003 s
  | Hartree multipole update                   :        0.005 s           0.004 s
  | Hartree multipole summation                :        0.241 s           0.241 s
  | Integration                                :        0.630 s           0.630 s
  | Solution of K.-S. eqns.                    :        0.036 s           0.036 s
  | Total energy evaluation                    :        0.000 s           0.000 s
------------------------------------------------------------

------------------------------------------------------------
          Begin self-consistency iteration #    2

  Date     :  20150727, Time     :  130251.672
------------------------------------------------------------
  Evaluating new KS density.
  Integration grid: deviation in total charge (<rho> - N_e) =  -1.371347E-12
  Pulay mixing of updated and previous charge densities.

  Evaluating partitioned Hartree potential by multipole expansion.
  | Analytical far-field extrapolation by fixed multipoles:
  | Hartree multipole sum: apparent total charge =  -0.197808E-05
  Summing up the Hartree potential.
  Time summed over all CPUs for potential: real work        1.918 s, elapsed        1.929 s
  | RMS charge density error from multipole expansion :   0.577911E-02

  Integrating Hamiltonian matrix: batch-based integration.
  Time summed over all CPUs for integration: real work        4.915 s, elapsed        5.025 s

  Updating Kohn-Sham eigenvalues, eigenvectors, occupation numbers, and Fermi level.
  Solving generalized eigenproblem
  Updating Kohn-Sham eigenvalues and eigenfunctions.
  Solving real generalised eigenvalue problem by standard LAPACK (fast)
  Determining occupation numbers for Kohn-Sham eigenstates.
  | Chemical potential (Fermi level) in eV                 : -.24776262E+01
  | Error in electron count due to remaining E_F inaccuracy: -.68212103E-12
  | Maximum occupation number of highest empty state:  0.00E+00

  Highest occupied state (VBM) at     -7.11703131 eV
  | Occupation number:      2.00000000

  Lowest unoccupied state (CBM) at    -2.47762622 eV
  | Occupation number:      1.00000000

  Overall HOMO-LUMO gap:      4.63940509 eV.

  Total energy components:
  | Sum of eigenvalues            :        -168.44468309 Ha       -4583.61303864 eV
  | XC energy correction          :         -37.35993547 Ha       -1016.61556885 eV
  | XC potential correction       :          47.75725897 Ha        1299.54113662 eV
  | Free-atom electrostatic energy:        -143.20454040 Ha       -3896.79381085 eV
  | Hartree energy correction     :          -5.45117089 Ha        -148.33390702 eV
  | van der Waals energy corr.    :           0.00000000 Ha           0.00000000 eV
  | Entropy correction            :          -0.00010367 Ha          -0.00282095 eV
  | ---------------------------
  | Total energy                  :        -306.70307087 Ha       -8345.81518874 eV
  | Total energy, T -> 0          :        -306.70317454 Ha       -8345.81800969 eV  <-- do not rely on this value for anything but (periodic) metals
  | Electronic free energy        :        -306.70327820 Ha       -8345.82083064 eV

  Derived energy quantities:
  | Kinetic energy                :         307.07348854 Ha        8355.89476648 eV
  | Electrostatic energy          :        -576.41662395 Ha      -15685.09438637 eV
  | Energy correction for multipole
  | error in Hartree potential    :           0.00076577 Ha           0.02083757 eV
  | Sum of eigenvalues per atom                           :        -352.58561836 eV
  | Total energy (T->0) per atom                          :        -641.98600075 eV  <-- do not rely on this value for anything but (periodic) metals
  | Electronic free energy per atom                       :        -641.98621774 eV

  Self-consistency convergence accuracy:
  | Change of charge density      : 0.4231E+00
  | Change of sum of eigenvalues  : 0.1043E+03 eV
  | Change of total energy        : 0.2976E+01 eV

  End self-consistency iteration #     2       :  max(cpu_time)    wall_clock(cpu1)
  | Time for this iteration                    :        1.365 s           1.365 s
  | Charge density update                      :        0.448 s           0.448 s
  | Density mixing                             :        0.005 s           0.005 s
  | Hartree multipole update                   :        0.004 s           0.004 s
  | Hartree multipole summation                :        0.242 s           0.242 s
  | Integration                                :        0.630 s           0.629 s
  | Solution of K.-S. eqns.                    :        0.036 s           0.036 s
  | Total energy evaluation                    :        0.000 s           0.001 s
------------------------------------------------------------

------------------------------------------------------------
          Begin self-consistency iteration #    3

  Date     :  20150727, Time     :  130253.037
------------------------------------------------------------
  Evaluating new KS density.
  Integration grid: deviation in total charge (<rho> - N_e) =  -6.750156E-13
  Pulay mixing of updated and previous charge densities.

  Evaluating partitioned Hartree potential by multipole expansion.
  | Analytical far-field extrapolation by fixed multipoles:
  | Hartree multipole sum: apparent total charge =  -0.589501E-06
  Summing up the Hartree potential.
  Time summed over all CPUs for potential: real work        1.918 s, elapsed        1.929 s
  | RMS charge density error from multipole expansion :   0.120105E-01

  Integrating Hamiltonian matrix: batch-based integration.
  Time summed over all CPUs for integration: real work        4.913 s, elapsed        5.024 s

  Updating Kohn-Sham eigenvalues, eigenvectors, occupation numbers, and Fermi level.
  Solving generalized eigenproblem
  Updating Kohn-Sham eigenvalues and eigenfunctions.
  Solving real generalised eigenvalue problem by standard LAPACK (fast)
  Determining occupation numbers for Kohn-Sham eigenstates.
  | Chemical potential (Fermi level) in eV                 : -.25278772E+01
  | Error in electron count due to remaining E_F inaccuracy: -.55795368E-09
  | Maximum occupation number of highest empty state:  0.00E+00

  Highest occupied state (VBM) at     -6.76212502 eV
  | Occupation number:      2.00000000

  Lowest unoccupied state (CBM) at    -2.52787721 eV
  | Occupation number:      1.00000000

  Overall HOMO-LUMO gap:      4.23424781 eV.

  Total energy components:
  | Sum of eigenvalues            :        -168.62844701 Ha       -4588.61350929 eV
  | XC energy correction          :         -37.34590364 Ha       -1016.23374343 eV
  | XC potential correction       :          47.73277497 Ha        1298.87489308 eV
  | Free-atom electrostatic energy:        -143.20454040 Ha       -3896.79381085 eV
  | Hartree energy correction     :          -5.25369250 Ha        -142.96024680 eV
  | van der Waals energy corr.    :           0.00000000 Ha           0.00000000 eV
  | Entropy correction            :          -0.00010367 Ha          -0.00282095 eV
  | ---------------------------
  | Total energy                  :        -306.69980858 Ha       -8345.72641728 eV
  | Total energy, T -> 0          :        -306.69991225 Ha       -8345.72923823 eV  <-- do not rely on this value for anything but (periodic) metals
  | Electronic free energy        :        -306.70001591 Ha       -8345.73205918 eV

  Derived energy quantities:
  | Kinetic energy                :         305.61117645 Ha        8316.10322985 eV
  | Electrostatic energy          :        -574.96508139 Ha      -15645.59590370 eV
  | Energy correction for multipole
  | error in Hartree potential    :          -0.00155652 Ha          -0.04235510 eV
  | Sum of eigenvalues per atom                           :        -352.97026995 eV
  | Total energy (T->0) per atom                          :        -641.97917217 eV  <-- do not rely on this value for anything but (periodic) metals
  | Electronic free energy per atom                       :        -641.97938917 eV

  Self-consistency convergence accuracy:
  | Change of charge density      : 0.2134E+00
  | Change of sum of eigenvalues  : -.5000E+01 eV
  | Change of total energy        : 0.8877E-01 eV

  End self-consistency iteration #     3       :  max(cpu_time)    wall_clock(cpu1)
  | Time for this iteration                    :        1.362 s           1.361 s
  | Charge density update                      :        0.444 s           0.443 s
  | Density mixing                             :        0.006 s           0.006 s
  | Hartree multipole update                   :        0.004 s           0.005 s
  | Hartree multipole summation                :        0.242 s           0.241 s
  | Integration                                :        0.629 s           0.630 s
  | Solution of K.-S. eqns.                    :        0.036 s           0.036 s
  | Total energy evaluation                    :        0.001 s           0.000 s
------------------------------------------------------------

------------------------------------------------------------
          Begin self-consistency iteration #    4

  Date     :  20150727, Time     :  130254.398
------------------------------------------------------------
  Evaluating new KS density.
  Integration grid: deviation in total charge (<rho> - N_e) =  -5.579324E-10
  Pulay mixing of updated and previous charge densities.

  Evaluating partitioned Hartree potential by multipole expansion.
  | Analytical far-field extrapolation by fixed multipoles:
  | Hartree multipole sum: apparent total charge =  -0.562706E-06
  Summing up the Hartree potential.
  Time summed over all CPUs for potential: real work        1.917 s, elapsed        1.927 s
  | RMS charge density error from multipole expansion :   0.153505E-01

  Integrating Hamiltonian matrix: batch-based integration.
  Time summed over all CPUs for integration: real work        4.898 s, elapsed        5.011 s

  Updating Kohn-Sham eigenvalues, eigenvectors, occupation numbers, and Fermi level.
  Solving generalized eigenproblem
  Updating Kohn-Sham eigenvalues and eigenfunctions.
  Solving real generalised eigenvalue problem by standard LAPACK (fast)
  Determining occupation numbers for Kohn-Sham eigenstates.
  | Chemical potential (Fermi level) in eV                 : -.24266818E+01
  | Error in electron count due to remaining E_F inaccuracy: 0.79482732E-09
  | Maximum occupation number of highest empty state:  0.00E+00

  Highest occupied state (VBM) at     -2.42668183 eV
  | Occupation number:      1.00000000

  Lowest unoccupied state (CBM) at    -1.25512112 eV
  | Occupation number:      0.00000000

  Overall HOMO-LUMO gap:      1.17156071 eV.

  Total energy components:
  | Sum of eigenvalues            :        -167.59395290 Ha       -4560.46349220 eV
  | XC energy correction          :         -37.47678223 Ha       -1019.79513114 eV
  | XC potential correction       :          47.90182760 Ha        1303.47504907 eV
  | Free-atom electrostatic energy:        -143.20454040 Ha       -3896.79381085 eV
  | Hartree energy correction     :          -6.32100873 Ha        -172.00339907 eV
  | van der Waals energy corr.    :           0.00000000 Ha           0.00000000 eV
  | Entropy correction            :          -0.00010367 Ha          -0.00282095 eV
  | ---------------------------
  | Total energy                  :        -306.69445666 Ha       -8345.58078418 eV
  | Total energy, T -> 0          :        -306.69456033 Ha       -8345.58360513 eV  <-- do not rely on this value for anything but (periodic) metals
  | Electronic free energy        :        -306.69466400 Ha       -8345.58642608 eV

  Derived energy quantities:
  | Kinetic energy                :         305.71231291 Ha        8318.85529286 eV
  | Electrostatic energy          :        -574.92998733 Ha      -15644.64094591 eV
  | Energy correction for multipole
  | error in Hartree potential    :          -0.00224755 Ha          -0.06115905 eV
  | Sum of eigenvalues per atom                           :        -350.80488402 eV
  | Total energy (T->0) per atom                          :        -641.96796963 eV  <-- do not rely on this value for anything but (periodic) metals
  | Electronic free energy per atom                       :        -641.96818662 eV

  Self-consistency convergence accuracy:
  | Change of charge density      : 0.1016E+00
  | Change of sum of eigenvalues  : 0.2815E+02 eV
  | Change of total energy        : 0.1456E+00 eV

  End self-consistency iteration #     4       :  max(cpu_time)    wall_clock(cpu1)
  | Time for this iteration                    :        1.360 s           1.361 s
  | Charge density update                      :        0.443 s           0.444 s
  | Density mixing                             :        0.007 s           0.007 s
  | Hartree multipole update                   :        0.005 s           0.004 s
  | Hartree multipole summation                :        0.241 s           0.242 s
  | Integration                                :        0.627 s           0.627 s
  | Solution of K.-S. eqns.                    :        0.036 s           0.036 s
  | Total energy evaluation                    :        0.000 s           0.001 s
------------------------------------------------------------

------------------------------------------------------------
          Begin self-consistency iteration #    5

  Date     :  20150727, Time     :  130255.759
------------------------------------------------------------
  Evaluating new KS density.
  Integration grid: deviation in total charge (<rho> - N_e) =   7.948557E-10
  Pulay mixing of updated and previous charge densities.

  Evaluating partitioned Hartree potential by multipole expansion.
  | Analytical far-field extrapolation by fixed multipoles:
  | Hartree multipole sum: apparent total charge =  -0.486020E-06
  Summing up the Hartree potential.
  Time summed over all CPUs for potential: real work        1.917 s, elapsed        1.928 s
  | RMS charge density error from multipole expansion :   0.156277E-01

  Integrating Hamiltonian matrix: batch-based integration.
  Time summed over all CPUs for integration: real work        4.902 s, elapsed        5.009 s

  Updating Kohn-Sham eigenvalues, eigenvectors, occupation numbers, and Fermi level.
  Solving generalized eigenproblem
  Updating Kohn-Sham eigenvalues and eigenfunctions.
  Solving real generalised eigenvalue problem by standard LAPACK (fast)
  Determining occupation numbers for Kohn-Sham eigenstates.
  | Chemical potential (Fermi level) in eV                 : -.23929816E+01
  | Error in electron count due to remaining E_F inaccuracy: -.23021585E-11
  | Maximum occupation number of highest empty state:  0.00E+00

  Highest occupied state (VBM) at     -5.80759183 eV
  | Occupation number:      2.00000000

  Lowest unoccupied state (CBM) at    -2.39298158 eV
  | Occupation number:      1.00000000

  Overall HOMO-LUMO gap:      3.41461026 eV.

  Total energy components:
  | Sum of eigenvalues            :        -167.57766967 Ha       -4560.02040296 eV
  | XC energy correction          :         -37.48107586 Ha       -1019.91196684 eV
  | XC potential correction       :          47.90708342 Ha        1303.61806713 eV
  | Free-atom electrostatic energy:        -143.20454040 Ha       -3896.79381085 eV
  | Hartree energy correction     :          -6.33813546 Ha        -172.46944107 eV
  | van der Waals energy corr.    :           0.00000000 Ha           0.00000000 eV
  | Entropy correction            :          -0.00010367 Ha          -0.00282095 eV
  | ---------------------------
  | Total energy                  :        -306.69433797 Ha       -8345.57755458 eV
  | Total energy, T -> 0          :        -306.69444164 Ha       -8345.58037553 eV  <-- do not rely on this value for anything but (periodic) metals
  | Electronic free energy        :        -306.69454531 Ha       -8345.58319648 eV

  Derived energy quantities:
  | Kinetic energy                :         305.75077880 Ha        8319.90200317 eV
  | Electrostatic energy          :        -574.96404091 Ha      -15645.56759092 eV
  | Energy correction for multipole
  | error in Hartree potential    :          -0.00223376 Ha          -0.06078383 eV
  | Sum of eigenvalues per atom                           :        -350.77080023 eV
  | Total energy (T->0) per atom                          :        -641.96772119 eV  <-- do not rely on this value for anything but (periodic) metals
  | Electronic free energy per atom                       :        -641.96793819 eV

  Self-consistency convergence accuracy:
  | Change of charge density      : 0.1878E-01
  | Change of sum of eigenvalues  : 0.4431E+00 eV
  | Change of total energy        : 0.3230E-02 eV

  End self-consistency iteration #     5       :  max(cpu_time)    wall_clock(cpu1)
  | Time for this iteration                    :        1.361 s           1.361 s
  | Charge density update                      :        0.443 s           0.443 s
  | Density mixing                             :        0.008 s           0.008 s
  | Hartree multipole update                   :        0.004 s           0.004 s
  | Hartree multipole summation                :        0.242 s           0.242 s
  | Integration                                :        0.627 s           0.627 s
  | Solution of K.-S. eqns.                    :        0.036 s           0.036 s
  | Total energy evaluation                    :        0.000 s           0.001 s
------------------------------------------------------------

------------------------------------------------------------
          Begin self-consistency iteration #    6

  Date     :  20150727, Time     :  130257.120
------------------------------------------------------------
  Evaluating new KS density.
  Integration grid: deviation in total charge (<rho> - N_e) =  -2.266631E-12
  Pulay mixing of updated and previous charge densities.

  Evaluating partitioned Hartree potential by multipole expansion.
  | Analytical far-field extrapolation by fixed multipoles:
  | Hartree multipole sum: apparent total charge =  -0.422201E-06
  Summing up the Hartree potential.
  Time summed over all CPUs for potential: real work        1.917 s, elapsed        1.929 s
  | RMS charge density error from multipole expansion :   0.157426E-01

  Integrating Hamiltonian matrix: batch-based integration.
  Time summed over all CPUs for integration: real work        4.894 s, elapsed        4.987 s

  Updating Kohn-Sham eigenvalues, eigenvectors, occupation numbers, and Fermi level.
  Solving generalized eigenproblem
  Updating Kohn-Sham eigenvalues and eigenfunctions.
  Solving real generalised eigenvalue problem by standard LAPACK (fast)
  Determining occupation numbers for Kohn-Sham eigenstates.
  | Chemical potential (Fermi level) in eV                 : -.23920798E+01
  | Error in electron count due to remaining E_F inaccuracy: -.42632564E-13
  | Maximum occupation number of highest empty state:  0.00E+00

  Highest occupied state (VBM) at     -5.81366379 eV
  | Occupation number:      2.00000000

  Lowest unoccupied state (CBM) at    -2.39207976 eV
  | Occupation number:      1.00000000

  Overall HOMO-LUMO gap:      3.42158403 eV.

  Total energy components:
  | Sum of eigenvalues            :        -167.58512416 Ha       -4560.22324990 eV
  | XC energy correction          :         -37.48096539 Ha       -1019.90896075 eV
  | XC potential correction       :          47.90679745 Ha        1303.61028558 eV
  | Free-atom electrostatic energy:        -143.20454040 Ha       -3896.79381085 eV
  | Hartree energy correction     :          -6.33050923 Ha        -172.26192084 eV
  | van der Waals energy corr.    :           0.00000000 Ha           0.00000000 eV
  | Entropy correction            :          -0.00010367 Ha          -0.00282095 eV
  | ---------------------------
  | Total energy                  :        -306.69434173 Ha       -8345.57765675 eV
  | Total energy, T -> 0          :        -306.69444540 Ha       -8345.58047770 eV  <-- do not rely on this value for anything but (periodic) metals
  | Electronic free energy        :        -306.69454906 Ha       -8345.58329865 eV

  Derived energy quantities:
  | Kinetic energy                :         305.74254049 Ha        8319.67782733 eV
  | Electrostatic energy          :        -574.95591683 Ha      -15645.34652333 eV
  | Energy correction for multipole
  | error in Hartree potential    :          -0.00225362 Ha          -0.06132421 eV
  | Sum of eigenvalues per atom                           :        -350.78640384 eV
  | Total energy (T->0) per atom                          :        -641.96772905 eV  <-- do not rely on this value for anything but (periodic) metals
  | Electronic free energy per atom                       :        -641.96794605 eV

  Self-consistency convergence accuracy:
  | Change of charge density      : 0.8589E-02
  | Change of sum of eigenvalues  : -.2028E+00 eV
  | Change of total energy        : -.1022E-03 eV

  End self-consistency iteration #     6       :  max(cpu_time)    wall_clock(cpu1)
  | Time for this iteration                    :        1.360 s           1.360 s
  | Charge density update                      :        0.443 s           0.443 s
  | Density mixing                             :        0.009 s           0.009 s
  | Hartree multipole update                   :        0.004 s           0.005 s
  | Hartree multipole summation                :        0.242 s           0.242 s
  | Integration                                :        0.625 s           0.624 s
  | Solution of K.-S. eqns.                    :        0.035 s           0.036 s
  | Total energy evaluation                    :        0.000 s           0.001 s
------------------------------------------------------------

------------------------------------------------------------
          Begin self-consistency iteration #    7

  Date     :  20150727, Time     :  130258.480
------------------------------------------------------------
  Evaluating new KS density.
  Integration grid: deviation in total charge (<rho> - N_e) =  -1.421085E-14
  Pulay mixing of updated and previous charge densities.

  Evaluating partitioned Hartree potential by multipole expansion.
  | Analytical far-field extrapolation by fixed multipoles:
  | Hartree multipole sum: apparent total charge =  -0.254136E-06
  Summing up the Hartree potential.
  Time summed over all CPUs for potential: real work        1.917 s, elapsed        1.928 s
  | RMS charge density error from multipole expansion :   0.158440E-01

  Integrating Hamiltonian matrix: batch-based integration.
  Time summed over all CPUs for integration: real work        4.897 s, elapsed        4.992 s

  Updating Kohn-Sham eigenvalues, eigenvectors, occupation numbers, and Fermi level.
  Solving generalized eigenproblem
  Updating Kohn-Sham eigenvalues and eigenfunctions.
  Solving real generalised eigenvalue problem by standard LAPACK (fast)
  Determining occupation numbers for Kohn-Sham eigenstates.
  | Chemical potential (Fermi level) in eV                 : -.23923503E+01
  | Error in electron count due to remaining E_F inaccuracy: 0.58249583E-09
  | Maximum occupation number of highest empty state:  0.00E+00

  Highest occupied state (VBM) at     -2.39235027 eV
  | Occupation number:      1.00000000

  Lowest unoccupied state (CBM) at    -1.27411237 eV
  | Occupation number:      0.00000000

  Overall HOMO-LUMO gap:      1.11823790 eV.

  Total energy components:
  | Sum of eigenvalues            :        -167.65708709 Ha       -4562.18146108 eV
  | XC energy correction          :         -37.47433673 Ha       -1019.72858572 eV
  | XC potential correction       :          47.89777985 Ha        1303.36490429 eV
  | Free-atom electrostatic energy:        -143.20454040 Ha       -3896.79381085 eV
  | Hartree energy correction     :          -6.25612260 Ha        -170.23775758 eV
  | van der Waals energy corr.    :           0.00000000 Ha           0.00000000 eV
  | Entropy correction            :          -0.00010367 Ha          -0.00282095 eV
  | ---------------------------
  | Total energy                  :        -306.69430697 Ha       -8345.57671094 eV
  | Total energy, T -> 0          :        -306.69441064 Ha       -8345.57953189 eV  <-- do not rely on this value for anything but (periodic) metals
  | Electronic free energy        :        -306.69451431 Ha       -8345.58235284 eV

  Derived energy quantities:
  | Kinetic energy                :         305.77749930 Ha        8320.62910499 eV
  | Electrostatic energy          :        -574.99746954 Ha      -15646.47723021 eV
  | Energy correction for multipole
  | error in Hartree potential    :          -0.00219417 Ha          -0.05970647 eV
  | Sum of eigenvalues per atom                           :        -350.93703547 eV
  | Total energy (T->0) per atom                          :        -641.96765630 eV  <-- do not rely on this value for anything but (periodic) metals
  | Electronic free energy per atom                       :        -641.96787330 eV

  Self-consistency convergence accuracy:
  | Change of charge density      : 0.7373E-02
  | Change of sum of eigenvalues  : -.1958E+01 eV
  | Change of total energy        : 0.9458E-03 eV

  End self-consistency iteration #     7       :  max(cpu_time)    wall_clock(cpu1)
  | Time for this iteration                    :        1.363 s           1.363 s
  | Charge density update                      :        0.445 s           0.445 s
  | Density mixing                             :        0.010 s           0.010 s
  | Hartree multipole update                   :        0.005 s           0.005 s
  | Hartree multipole summation                :        0.242 s           0.241 s
  | Integration                                :        0.625 s           0.625 s
  | Solution of K.-S. eqns.                    :        0.036 s           0.035 s
  | Total energy evaluation                    :        0.000 s           0.000 s
------------------------------------------------------------

------------------------------------------------------------
          Begin self-consistency iteration #    8

  Date     :  20150727, Time     :  130259.843
------------------------------------------------------------
  Evaluating new KS density.
  Integration grid: deviation in total charge (<rho> - N_e) =   5.825029E-10
  Pulay mixing of updated and previous charge densities.

  Evaluating partitioned Hartree potential by multipole expansion.
  | Analytical far-field extrapolation by fixed multipoles:
  | Hartree multipole sum: apparent total charge =  -0.243090E-06
  Summing up the Hartree potential.
  Time summed over all CPUs for potential: real work        1.923 s, elapsed        1.963 s
  | RMS charge density error from multipole expansion :   0.158669E-01

  Integrating Hamiltonian matrix: batch-based integration.
  Time summed over all CPUs for integration: real work        4.895 s, elapsed        4.990 s

  Updating Kohn-Sham eigenvalues, eigenvectors, occupation numbers, and Fermi level.
  Solving generalized eigenproblem
  Updating Kohn-Sham eigenvalues and eigenfunctions.
  Solving real generalised eigenvalue problem by standard LAPACK (fast)
  Determining occupation numbers for Kohn-Sham eigenstates.
  | Chemical potential (Fermi level) in eV                 : -.23998650E+01
  | Error in electron count due to remaining E_F inaccuracy: 0.92856212E-08
  | Maximum occupation number of highest empty state:  0.00E+00

  Highest occupied state (VBM) at     -2.39986500 eV
  | Occupation number:      1.00000001

  Lowest unoccupied state (CBM) at    -1.27382561 eV
  | Occupation number:      0.00000000

  Overall HOMO-LUMO gap:      1.12603939 eV.

  Total energy components:
  | Sum of eigenvalues            :        -167.66376945 Ha       -4562.36329736 eV
  | XC energy correction          :         -37.47368210 Ha       -1019.71077227 eV
  | XC potential correction       :          47.89687966 Ha        1303.34040876 eV
  | Free-atom electrostatic energy:        -143.20454040 Ha       -3896.79381085 eV
  | Hartree energy correction     :          -6.24919337 Ha        -170.04920373 eV
  | van der Waals energy corr.    :           0.00000000 Ha           0.00000000 eV
  | Entropy correction            :          -0.00010367 Ha          -0.00282095 eV
  | ---------------------------
  | Total energy                  :        -306.69430567 Ha       -8345.57667544 eV
  | Total energy, T -> 0          :        -306.69440933 Ha       -8345.57949639 eV  <-- do not rely on this value for anything but (periodic) metals
  | Electronic free energy        :        -306.69451300 Ha       -8345.58231734 eV

  Derived energy quantities:
  | Kinetic energy                :         305.77908978 Ha        8320.67238393 eV
  | Electrostatic energy          :        -574.99971334 Ha      -15646.53828710 eV
  | Energy correction for multipole
  | error in Hartree potential    :          -0.00220322 Ha          -0.05995262 eV
  | Sum of eigenvalues per atom                           :        -350.95102287 eV
  | Total energy (T->0) per atom                          :        -641.96765357 eV  <-- do not rely on this value for anything but (periodic) metals
  | Electronic free energy per atom                       :        -641.96787056 eV

  Self-consistency convergence accuracy:
  | Change of charge density      : 0.1468E-02
  | Change of sum of eigenvalues  : -.1818E+00 eV
  | Change of total energy        : 0.3550E-04 eV

  End self-consistency iteration #     8       :  max(cpu_time)    wall_clock(cpu1)
  | Time for this iteration                    :        1.367 s           1.367 s
  | Charge density update                      :        0.443 s           0.444 s
  | Density mixing                             :        0.012 s           0.011 s
  | Hartree multipole update                   :        0.004 s           0.005 s
  | Hartree multipole summation                :        0.246 s           0.246 s
  | Integration                                :        0.625 s           0.625 s
  | Solution of K.-S. eqns.                    :        0.036 s           0.036 s
  | Total energy evaluation                    :        0.000 s           0.000 s
------------------------------------------------------------

------------------------------------------------------------
          Begin self-consistency iteration #    9

  Date     :  20150727, Time     :  130301.210
------------------------------------------------------------
  Evaluating new KS density.
  Integration grid: deviation in total charge (<rho> - N_e) =   9.285621E-09
  Pulay mixing of updated and previous charge densities.

  Evaluating partitioned Hartree potential by multipole expansion.
  | Analytical far-field extrapolation by fixed multipoles:
  | Hartree multipole sum: apparent total charge =  -0.241256E-06
  Summing up the Hartree potential.
  Time summed over all CPUs for potential: real work        1.940 s, elapsed        2.070 s
  | RMS charge density error from multipole expansion :   0.158567E-01

  Integrating Hamiltonian matrix: batch-based integration.
  Time summed over all CPUs for integration: real work        4.896 s, elapsed        4.994 s

  Updating Kohn-Sham eigenvalues, eigenvectors, occupation numbers, and Fermi level.
  Solving generalized eigenproblem
  Updating Kohn-Sham eigenvalues and eigenfunctions.
  Solving real generalised eigenvalue problem by standard LAPACK (fast)
  Determining occupation numbers for Kohn-Sham eigenstates.
  | Chemical potential (Fermi level) in eV                 : -.24022758E+01
  | Error in electron count due to remaining E_F inaccuracy: 0.19189201E-08
  | Maximum occupation number of highest empty state:  0.00E+00

  Highest occupied state (VBM) at     -2.40227583 eV
  | Occupation number:      1.00000000

  Lowest unoccupied state (CBM) at    -1.27348020 eV
  | Occupation number:      0.00000000

  Overall HOMO-LUMO gap:      1.12879563 eV.

  Total energy components:
  | Sum of eigenvalues            :        -167.66296494 Ha       -4562.34140544 eV
  | XC energy correction          :         -37.47369589 Ha       -1019.71114756 eV
  | XC potential correction       :          47.89690307 Ha        1303.34104576 eV
  | Free-atom electrostatic energy:        -143.20454040 Ha       -3896.79381085 eV
  | Hartree energy correction     :          -6.25000674 Ha        -170.07133664 eV
  | van der Waals energy corr.    :           0.00000000 Ha           0.00000000 eV
  | Entropy correction            :          -0.00010367 Ha          -0.00282095 eV
  | ---------------------------
  | Total energy                  :        -306.69430491 Ha       -8345.57665473 eV
  | Total energy, T -> 0          :        -306.69440857 Ha       -8345.57947568 eV  <-- do not rely on this value for anything but (periodic) metals
  | Electronic free energy        :        -306.69451224 Ha       -8345.58229663 eV

  Derived energy quantities:
  | Kinetic energy                :         305.78408066 Ha        8320.80819287 eV
  | Electrostatic energy          :        -575.00468967 Ha      -15646.67370004 eV
  | Energy correction for multipole
  | error in Hartree potential    :          -0.00220086 Ha          -0.05988853 eV
  | Sum of eigenvalues per atom                           :        -350.94933888 eV
  | Total energy (T->0) per atom                          :        -641.96765198 eV  <-- do not rely on this value for anything but (periodic) metals
  | Electronic free energy per atom                       :        -641.96786897 eV

  Self-consistency convergence accuracy:
  | Change of charge density      : 0.6004E-03
  | Change of sum of eigenvalues  : 0.2189E-01 eV
  | Change of total energy        : 0.2071E-04 eV

  End self-consistency iteration #     9       :  max(cpu_time)    wall_clock(cpu1)
  | Time for this iteration                    :        1.388 s           1.389 s
  | Charge density update                      :        0.450 s           0.450 s
  | Density mixing                             :        0.012 s           0.013 s
  | Hartree multipole update                   :        0.004 s           0.004 s
  | Hartree multipole summation                :        0.259 s           0.260 s
  | Integration                                :        0.625 s           0.625 s
  | Solution of K.-S. eqns.                    :        0.036 s           0.036 s
  | Total energy evaluation                    :        0.000 s           0.000 s
------------------------------------------------------------

------------------------------------------------------------
          Begin self-consistency iteration #   10

  Date     :  20150727, Time     :  130302.599
------------------------------------------------------------
  Evaluating new KS density.
  Integration grid: deviation in total charge (<rho> - N_e) =   1.918941E-09
[...]
  | Electronic free energy        :        -306.69653670 Ha       -8345.63738485 eV

  Derived energy quantities:
  | Kinetic energy                :         305.78395309 Ha        8320.80472133 eV
  | Electrostatic energy          :        -575.00472277 Ha      -15646.67460066 eV
  | Energy correction for multipole
  | error in Hartree potential    :          -0.00220318 Ha          -0.05995150 eV
  | Sum of eigenvalues per atom                           :        -350.95229054 eV
  | Total energy (T->0) per atom                          :        -641.97188953 eV  <-- do not rely on this value for anything but (periodic) metals
  | Electronic free energy per atom                       :        -641.97210653 eV

  atomic forces [eV/Ang]:
  -----------------------
  atom #    1
   Hellmann-Feynman + Multipole  : -.274001E+01 -.672102E+01 -.807193E+01
   Pulay + GGA                   : 0.230202E+01 0.748107E+01 0.767888E+01
   Van der Waals               : 0.670326E-04 0.656325E-02 0.431692E-02
   ----------------------------------------------------------------
   Total forces(   1)            : -.437925E+00 0.766612E+00 -.388738E+00
  atom #    2
   Hellmann-Feynman + Multipole  : 0.335887E+00 -.731117E+00 0.270871E+00
   Pulay + GGA                   : -.887148E-01 0.125601E+00 -.925646E-01
   Van der Waals               : -.617766E-03 0.700210E-03 0.349207E-02
   ----------------------------------------------------------------
   Total forces(   2)            : 0.246555E+00 -.604816E+00 0.181798E+00
  atom #    3
   Hellmann-Feynman + Multipole  : -.195267E-02 -.100656E+00 0.898361E-01
   Pulay + GGA                   : 0.184356E+00 0.338506E-01 -.238109E-02
   Van der Waals               : -.161792E-02 0.535156E-02 0.366258E-02
   ----------------------------------------------------------------
   Total forces(   3)            : 0.180785E+00 -.614534E-01 0.911176E-01
  atom #    4
   Hellmann-Feynman + Multipole  : 0.851865E-01 0.322704E-01 0.510349E-01
   Pulay + GGA                   : -.572774E-01 -.543755E-01 0.135755E+00
   Van der Waals               : -.123728E-03 0.489117E-02 0.146544E-02
   ----------------------------------------------------------------
   Total forces(   4)            : 0.277854E-01 -.172140E-01 0.188256E+00
  atom #    5
   Hellmann-Feynman + Multipole  : 0.598479E+01 -.705276E+01 -.101244E+02
   Pulay + GGA                   : -.641434E+01 0.767660E+01 0.121218E+02
   Van der Waals               : 0.153318E-02 -.239403E-02 -.515764E-02
   ----------------------------------------------------------------
   Total forces(   5)            : -.428012E+00 0.621449E+00 0.199228E+01
  atom #    6
   Hellmann-Feynman + Multipole  : -.358018E+00 0.213755E+00 -.236142E+01
   Pulay + GGA                   : 0.141816E-01 0.737211E-02 0.132460E+00
   Van der Waals               : -.781201E-03 0.983618E-03 -.303724E-02
   ----------------------------------------------------------------
   Total forces(   6)            : -.344617E+00 0.222111E+00 -.223199E+01
  atom #    7
   Hellmann-Feynman + Multipole  : 0.120493E+01 -.132734E+01 0.371362E+00
   Pulay + GGA                   : -.486088E-01 0.680475E-01 0.327013E-02
   Van der Waals               : 0.407215E-03 -.310722E-02 -.223486E-02
   ----------------------------------------------------------------
   Total forces(   7)            : 0.115673E+01 -.126240E+01 0.372398E+00
  atom #    8
   Hellmann-Feynman + Multipole  : -.124760E+02 -.556585E+01 -.176331E+01
   Pulay + GGA                   : 0.134958E+02 0.699956E+01 0.123240E+01
   Van der Waals               : 0.143253E-02 -.454196E-02 0.257908E-02
   ----------------------------------------------------------------
   Total forces(   8)            : 0.102123E+01 0.142917E+01 -.528328E+00
  atom #    9
   Hellmann-Feynman + Multipole  : -.442272E+00 -.942397E-01 -.693440E-01
   Pulay + GGA                   : 0.123905E+00 -.514694E-01 0.177200E-01
   Van der Waals               : 0.275506E-02 -.252251E-02 -.335432E-02
   ----------------------------------------------------------------
   Total forces(   9)            : -.315612E+00 -.148232E+00 -.549784E-01
  atom #   10
   Hellmann-Feynman + Multipole  : -.721275E+00 -.136824E+01 0.661243E+00
   Pulay + GGA                   : 0.462657E-01 0.100855E+00 -.737578E-01
   Van der Waals               : -.882974E-03 -.275520E-02 0.169567E-02
   ----------------------------------------------------------------
   Total forces(  10)            : -.675892E+00 -.127014E+01 0.589181E+00
  atom #   11
   Hellmann-Feynman + Multipole  : -.134940E+01 -.126994E+02 -.439462E+00
   Pulay + GGA                   : 0.186158E+01 0.132267E+02 -.100771E+01
   Van der Waals               : -.389952E-02 -.971867E-03 0.323826E-03
   ----------------------------------------------------------------
   Total forces(  11)            : 0.508285E+00 0.526293E+00 -.144684E+01
  atom #   12
   Hellmann-Feynman + Multipole  : -.278034E+00 0.439011E+00 0.349823E+00
   Pulay + GGA                   : -.820645E-01 0.873397E-01 0.707565E-01
   Van der Waals               : 0.397089E-02 -.177709E-02 -.282928E-02
   ----------------------------------------------------------------
   Total forces(  12)            : -.356128E+00 0.524573E+00 0.417750E+00
  atom #   13
   Hellmann-Feynman + Multipole  : -.599933E+00 -.791495E+00 0.891286E+00
   Pulay + GGA                   : 0.288101E-01 0.699847E-01 -.683230E-01
   Van der Waals               : -.224279E-02 -.419941E-03 -.922247E-03
   ----------------------------------------------------------------
   Total forces(  13)            : -.573366E+00 -.721930E+00 0.822041E+00
  Timings for vdw_correction_hirshfeld (Tkatchenko-Scheffler 2009):
  | CPU time:        3.652 s, Wall clock time:        3.652 s.
  Removing unitary transformations (pure translations, rotations) from forces on atoms.
  Atomic forces before filtering:
  | Net force on center of mass :  0.981159E-02 0.402186E-02 0.393822E-02 eV/A
  | Net torque on center of mass:  -.186970E-01 0.134306E-02 -.342031E-02 eV
  Atomic forces after filtering:
  | Net force on center of mass :  0.178406E-15 0.000000E+00 -.356812E-15 eV/A
  | Net torque on center of mass:  0.896880E-15 0.188817E-15 -.377634E-15 eV
 
  Energy and forces in a compact form:
  | Total energy uncorrected      :         -0.834563174295528E+04 eV
  | Total energy corrected        :         -0.834563456390320E+04 eV  <-- do not rely on this value for anything but (periodic) metals
  | Electronic free energy        :         -0.834563738485111E+04 eV
  Total atomic forces (unitary forces cleaned) [eV/Ang]:
  |   1         -0.438509451616790E+00          0.766749881065204E+00         -0.389657803580807E+00
  |   2          0.245970337930698E+00         -0.604594317424664E+00          0.181075417058639E+00
  |   3          0.180191181546371E+00         -0.613027916593103E-01          0.903234598616362E-01
  |   4          0.271464733510325E-01         -0.173233396186504E-01          0.187287985251576E+00
  |   5         -0.428870231400753E+00          0.620662062219979E+00          0.199186463139315E+01
  |   6         -0.345535120922115E+00          0.221073047532014E+00         -0.223241600194184E+01
  |   7          0.115585977754958E+01         -0.126316618040381E+01          0.372121082218255E+00
  |   8          0.102049642847107E+01          0.142914760228417E+01         -0.528198495992339E+00
  |   9         -0.316351208805838E+00         -0.148312411970119E+00         -0.548932429069294E-01
  |  10         -0.676617829159201E+00         -0.127004812250449E+01          0.589545604034197E+00
  |  11          0.507431688705690E+00          0.525661061102667E+00         -0.144694141018554E+01
  |  12         -0.357027237982511E+00          0.523810502575146E+00          0.417798184129301E+00
  |  13         -0.574184807667238E+00         -0.722356993198140E+00          0.822090590660698E+00
 
  ------------------------------------ 
  Start decomposition of the XC Energy 
  ------------------------------------ 
  Hartree-Fock part   :          0.000000000 Ha              0.000000000 eV
  ------------------------------------ 
  X Energy            :        -36.150914329 Ha           -983.716429841 eV
  C Energy GGA        :         -1.322620934 Ha            -35.990346777 eV
  Total XC Energy     :        -37.473535263 Ha          -1019.706776617 eV
  LDA X and C from self-consistent density 
  X Energy LDA        :        -32.565981432 Ha           -886.165442370 eV
  C Energy LDA        :         -2.674408888 Ha            -72.774368573 eV
  ------------------------------------ 
  End decomposition of the XC Energy 
  ------------------------------------ 
  Performing Hirshfeld analysis of fragment charges and moments.
  ----------------------------------------------------------------------
  | Atom     1: O
  |   Hirshfeld charge        :     -0.11639190
  |   Free atom volume        :     23.95238533
  |   Hirshfeld volume        :     23.95056306
  |   Hirshfeld dipole vector :      0.00325641       0.02374293       0.03433111
  |   Hirshfeld dipole moment :      0.04186832
  |   Hirshfeld second moments:      0.03947642      -0.00435239      -0.01243039
  |                                 -0.00435239      -0.00914402      -0.02659208
  |                                 -0.01243039      -0.02659208       0.02551794
  ----------------------------------------------------------------------
  | Atom     2: H
  |   Hirshfeld charge        :      0.04225647
  |   Free atom volume        :     10.44207651
  |   Hirshfeld volume        :     14.17650465
  |   Hirshfeld dipole vector :      0.01001346      -0.00690783       0.03765827
  |   Hirshfeld dipole moment :      0.03957440
  |   Hirshfeld second moments:     -0.05513034       0.00459897      -0.00283506
  |                                  0.00459897      -0.04630453       0.01870103
  |                                 -0.00283506       0.01870103      -0.04999666
  ----------------------------------------------------------------------
  | Atom     3: H
  |   Hirshfeld charge        :      0.07096529
  |   Free atom volume        :     10.44207651
  |   Hirshfeld volume        :     14.20918351
  |   Hirshfeld dipole vector :     -0.00145777       0.00778426       0.01623020
  |   Hirshfeld dipole moment :      0.01805932
  |   Hirshfeld second moments:     -0.05183531      -0.01056891      -0.00670469
  |                                 -0.01056891      -0.03682752       0.00688001
  |                                 -0.00670469       0.00688001      -0.03494480
  ----------------------------------------------------------------------
  | Atom     4: H
  |   Hirshfeld charge        :      0.12029791
  |   Free atom volume        :     10.44207651
  |   Hirshfeld volume        :     11.79137346
  |   Hirshfeld dipole vector :     -0.01817673       0.00709564       0.05359300
  |   Hirshfeld dipole moment :      0.05703465
  |   Hirshfeld second moments:      0.00832120       0.00439602      -0.00831496
  |                                  0.00439602       0.01358143      -0.00144277
  |                                 -0.00831496      -0.00144277       0.01323890
  ----------------------------------------------------------------------
  | Atom     5: O
  |   Hirshfeld charge        :     -0.36062128
  |   Free atom volume        :     23.95238533
  |   Hirshfeld volume        :     24.04659311
  |   Hirshfeld dipole vector :     -0.04352286       0.04467523       0.04936665
  |   Hirshfeld dipole moment :      0.07954358
  |   Hirshfeld second moments:     -0.06780774      -0.03638873       0.03336440
  |                                 -0.03638873      -0.06494645      -0.02828655
  |                                  0.03336440      -0.02828655       0.00595281
  ----------------------------------------------------------------------
  | Atom     6: H
  |   Hirshfeld charge        :      0.11442336
  |   Free atom volume        :     10.44207651
  |   Hirshfeld volume        :      7.51638355
  |   Hirshfeld dipole vector :      0.01313847      -0.00667675       0.12342278
  |   Hirshfeld dipole moment :      0.12429956
  |   Hirshfeld second moments:      0.08729437      -0.01728676       0.00902837
  |                                 -0.01728676       0.08481481      -0.00856362
  |                                  0.00902837      -0.00856362       0.08654364
  ----------------------------------------------------------------------
  | Atom     7: H
  |   Hirshfeld charge        :      0.06760934
  |   Free atom volume        :     10.44207651
  |   Hirshfeld volume        :      8.72548158
  |   Hirshfeld dipole vector :     -0.03217796       0.03712102       0.00846216
  |   Hirshfeld dipole moment :      0.04984977
  |   Hirshfeld second moments:      0.03030415       0.01694977      -0.01565294
  |                                  0.01694977       0.03236110       0.00613356
  |                                 -0.01565294       0.00613356       0.08390753
  ----------------------------------------------------------------------
  | Atom     8: O
  |   Hirshfeld charge        :     -0.24327463
  |   Free atom volume        :     23.95238533
  |   Hirshfeld volume        :     22.06527621
  |   Hirshfeld dipole vector :      0.02072345       0.02774165       0.03742962
  |   Hirshfeld dipole moment :      0.05099056
  |   Hirshfeld second moments:      0.03932274      -0.01595839      -0.00597333
  |                                 -0.01595839       0.03569272      -0.05621715
  |                                 -0.00597333      -0.05621715       0.00529852
  ----------------------------------------------------------------------
  | Atom     9: H
  |   Hirshfeld charge        :      0.12592101
  |   Free atom volume        :     10.44207651
  |   Hirshfeld volume        :      8.92723610
  |   Hirshfeld dipole vector :      0.07487982      -0.01300228       0.04981024
  |   Hirshfeld dipole moment :      0.09086862
  |   Hirshfeld second moments:      0.06998939       0.02011679      -0.00423957
  |                                  0.02011679       0.06668424      -0.01757853
  |                                 -0.00423957      -0.01757853       0.05732480
  ----------------------------------------------------------------------
  | Atom    10: H
  |   Hirshfeld charge        :      0.14410889
  |   Free atom volume        :     10.44207651
  |   Hirshfeld volume        :      7.52204852
  |   Hirshfeld dipole vector :      0.03002914       0.10066856      -0.04001155
  |   Hirshfeld dipole moment :      0.11241367
  |   Hirshfeld second moments:      0.10876290      -0.01069323       0.00340899
  |                                 -0.01069323       0.08630025      -0.01907432
  |                                  0.00340899      -0.01907432       0.08884638
  ----------------------------------------------------------------------
  | Atom    11: O
  |   Hirshfeld charge        :     -0.22781535
  |   Free atom volume        :     23.95238533
  |   Hirshfeld volume        :     21.23103265
  |   Hirshfeld dipole vector :      0.02691623       0.02142805       0.01730130
  |   Hirshfeld dipole moment :      0.03850948
  |   Hirshfeld second moments:      0.03616102      -0.03014015      -0.03569863
  |                                 -0.03014015       0.04661128      -0.00811942
  |                                 -0.03569863      -0.00811942       0.06100787
  ----------------------------------------------------------------------
  | Atom    12: H
  |   Hirshfeld charge        :      0.15097936
  |   Free atom volume        :     10.44207651
  |   Hirshfeld volume        :      6.26587793
  |   Hirshfeld dipole vector :     -0.05747413       0.08237231       0.06599232
  |   Hirshfeld dipole moment :      0.12018095
  |   Hirshfeld second moments:      0.11470602      -0.00280180      -0.00915529
  |                                 -0.00280180       0.11551103      -0.01220779
  |                                 -0.00915529      -0.01220779       0.12323294
  ----------------------------------------------------------------------
  | Atom    13: H
  |   Hirshfeld charge        :      0.11143244
  |   Free atom volume        :     10.44207651
  |   Hirshfeld volume        :      8.07310861
  |   Hirshfeld dipole vector :      0.01987362       0.04194868      -0.02830180
  |   Hirshfeld dipole moment :      0.05436584
  |   Hirshfeld second moments:      0.07025963      -0.02222771       0.01567688
  |                                 -0.02222771       0.09021956       0.00592708
  |                                  0.01567688       0.00592708       0.05099841
  ----------------------------------------------------------------------


------------------------------------------------------------------------------
  Final output of selected total energy values:

  The following output summarizes some interesting total energy values
  at the end of a run (AFTER all relaxation, molecular dynamics, etc.).

  | Total energy of the DFT / Hartree-Fock s.c.f. calculation      :          -8345.631742955 eV
  | Final zero-broadening corrected energy (caution - metals only) :          -8345.634563903 eV
  | For reference only, the value of 1 Hartree used in FHI-aims is :             27.211384500 eV

  Before relying on these values, please be sure to understand exactly which
  total energy value is referred to by a given number. Different objects may
  all carry the same name 'total energy'. Definitions:

  Total energy of the DFT / Hartree-Fock s.c.f. calculation:
  | Note that this energy does not include ANY quantities calculated after the
  | s.c.f. cycle, in particular not ANY RPA, MP2, etc. many-body perturbation terms.

  Final zero-broadening corrected energy:
  | For metallic systems only, a broadening of the occupation numbers at the Fermi
  | level can be extrapolated back to zero broadening by an electron-gas inspired
  | formula. For all systems that are not real metals, this value can be
  | meaningless and should be avoided.

------------------------------------------------------------------------------

------------------------------------------------------------
          Leaving FHI-aims.
          Date     :  20150727, Time     :  130313.598

          Computational steps:
          | Number of self-consistency cycles          :           15

          Detailed time accounting                     :  max(cpu_time)    wall_clock(cpu1)
          | Total time                                 :       25.234 s          25.273 s
          | Preparation time                           :        0.172 s           0.568 s
          | Grid partitioning                          :        0.123 s           0.123 s
          | Preloading free-atom quantities on grid    :        0.013 s           0.013 s
          | Free-atom superposition energy             :        0.052 s           0.052 s
          | Total time for integrations                :       10.362 s          10.360 s
          | Total time for solution of K.-S. equations :        0.675 s           0.675 s
          | Total time for density & force components  :        8.558 s           8.559 s
          | Total time for mixing                      :        0.160 s           0.160 s
          | Total time for Hartree multipole update    :        0.067 s           0.066 s
          | Total time for Hartree multipole sum       :        4.446 s           4.449 s
          | Total time for total energy evaluation     :        0.004 s           0.007 s
          | Total time for scaled ZORA corrections     :        0.000 s           0.000 s
          | Total time for TS (2009) vdW correction    :        0.039 s           0.040 s

          Have a nice day.
------------------------------------------------------------
