  MPI-parallelism will be employed.
------------------------------------------------------------
          Invoking FHI-aims ...
          Version 081213
          Compiled on 2013/08/29 at 17:41:06 on host generoso.

          When using FHI-aims, please cite the following reference:

          Volker Blum, Ralf Gehrke, Felix Hanke, Paula Havu,
          Ville Havu, Xinguo Ren, Karsten Reuter, and Matthias Scheffler,
          'Ab Initio Molecular Simulations with Numeric Atom-Centered Orbitals: FHI-aims',
          Computer Physics Communications 180, 2175-2196 (2009)

          For any questions about FHI-aims, please visit the aimsclub website
          with its forums and wiki. Contributions to both the forums and the
          wiki are warmly encouraged - they are for you, and everyone is welcome there.

------------------------------------------------------------

  Date     :  20150727, Time     :  115719.296
  Time zero on CPU 1             :   0.449920000000000E-01  s.
  Internal wall clock time zero  :           207230239.296  s.

  Using        8 parallel tasks.
  Task        0 on host gen59 reporting.
  Task        1 on host gen59 reporting.
  Task        2 on host gen59 reporting.
  Task        3 on host gen59 reporting.
  Task        4 on host gen59 reporting.
  Task        5 on host gen59 reporting.
  Task        6 on host gen59 reporting.
  Task        7 on host gen59 reporting.

  Performing system and environment tests:
  | Environment variable OMP_NUM_THREADS correctly set to 1.
  | Checking for scalapack...
  | No scalapack compiled in.

  Obtaining array dimensions for all initial allocations:
  
  -----------------------------------------------------------------------
  Parsing control.in (first pass over file, find array dimensions only).
  The contents of control.in will be repeated verbatim below
  unless switched off by setting 'verbatim_writeout .false.' .
  in the first line of control.in .
  -----------------------------------------------------------------------
  
  #########################################################################################
  #
  #  Volker Blum, FHI 2008 : Test run input file control.in
  #
  #########################################################################################
  #
  #  Physical model
  #
    xc                 rpbe
    spin               none
    relativistic       atomic_zora scalar
    charge             0.
   vdw_correction_hirshfeld
  #
  #  SCF convergence
  #
    occupation_type    gaussian 0.01
    mixer              pulay
      n_max_pulay        10
      charge_mix_param   0.1
    sc_accuracy_rho    5E-5
    sc_accuracy_eev    5E-3
    sc_accuracy_etot   5E-6
    sc_iter_limit      3000
  #
  #  Eigenvalue solver
  #
    KS_method          lapack
      empty_states       8
      basis_threshold    0.e-5
  #
  #  Efficiency
  #
  #   all previous settings are now default, except stratmann still
  #   undecided. Continue to handle stratmann with care, if at all.
  #
  #  partition_type stratmann
    partition_type rho_r2
  #  hartree_partition_type stratmann
  #
  #  Oprions for large clusters (100's of atoms: memory saving / better scaling)
  #
  # for periodic systems:
  #
    density_update_method orbital
    packed_matrix_format none
  #  k_grid 6 6 6
  #  output k_eigenvalue 1
  #  distributed_spline_storage .true.
  #
  #  Relaxation
  #
  #  relax_geometry   bfgs 5.e-3
    sc_accuracy_forces 5.E-4
    final_forces_cleaned .true.
  #
  #  Output options
  #
  #  output mulliken
    output Hirshfeld
  #  output dipole
  
  #harmonic_length_scale 0.001
  
  ################################################################################
  #
  #  FHI-aims code project
  #  VB, Fritz-Haber Institut, 2007
  #
  #  Suggested "safe" defaults for H atom (to be pasted into control.in file)
  #  Basis constructed for a non-relativistic H2 molecule using the
  #  PW-LDA functional.
  #
  ################################################################################
    species        H
  #     global species definitions
      nucleus             1
      cut_pot             4.0  2.0  1.0
      cut_free_atom       finite 8.0
      logarithmic         0.00010000 100.00  1.0123
      basis_dep_cutoff    1d-4  # 1d-4 is safe default - please check 5d-4 if you wish!
      radial_base         24 7.0
      radial_multiplier   2
      angular_grids       specified
        division   0.2783  110
        division   0.3822  194
        division   0.5626  302
  #      division   0.5922  434
  #      division   0.6227  590
  #      division   0.7206  770
        outer_grid  302
      l_hartree           4
  ################################################################################
  #
  #  Definition of "minimal" basis
  #
  ################################################################################
  #     valence basis states
      valence      1  s   1.
  #     ion occupancy
      ion_occ      1  s   0.5
  ################################################################################
  #
  #  Suggested additional basis functions. For production calculations,
  #  uncomment them one after another (the most important basis functions are
  #  listed first).
  #
  ################################################################################
  #  "First tier" - improvements: -1014.90 meV to -62.69 meV
       hydro 2 s 2.1
       hydro 2 p 3.5
  #  "Second tier" - improvements: -12.89 meV to -1.83 meV
       hydro 1 s 0.85
       hydro 2 p 3.7
       hydro 2 s 1.2
       hydro 3 d 7
  #  "Third tier" - improvements: -0.25 meV to -0.12 meV
  #     hydro 4 f 11.2
  #     hydro 3 p 4.8
  #     hydro 4 d 9
  #     hydro 3 s 3.2
  
  ################################################################################
  #
  #  FHI-aims code project
  #  VB, Fritz-Haber Institut, 2007
  #
  #  Suggested "safe" defaults for O atom (to be pasted into control.in file)
  #  All values have been tested for a non-relativistic, non-spinpolarized O2
  #  molecule using the PW-LDA functional. Validity for PBE is expected.
  #
  #  Constructed for dimers: 1.0 A, 1.208 A, 1.5 A, 2.0 A, 3.0 A
  #
  ################################################################################
    species        O
  #     global species definitions
      nucleus             8
      mass                15.9994
      l_hartree           4
      cut_pot             4.0  2.0  1.0
      cut_free_atom       finite 8.0
      basis_dep_cutoff    1d-4  # 1d-4 is safe default - please check 5d-4 if you wish!
      logarithmic         0.00010000 100.00  1.0123
      radial_base         36 7.0
      radial_multiplier   2
       angular_grids specified
        division   0.4087  110
        division   0.5181  194
        division   0.6184  302
  #      division   0.7315  434
  #      division   0.7934  590
  #      division   0.9656  770
  #      division   1.4041  974
  #      outer_grid 974
        outer_grid 302
  ################################################################################
  #
  #  Definition of "minimal" basis
  #
  ################################################################################
  #     valence basis states
      valence      2  s   2.
      valence      2  p   4.
  #     ion occupancy
      ion_occ      2  s   1.
      ion_occ      2  p   3.
  ################################################################################
  #
  #  Suggested additional basis functions. For production calculations,
  #  uncomment them one after another (the most important basis functions are
  #  listed first).
  #
  ################################################################################
  #  "First tier" - improvements: -699.05 meV to -159.38 meV
       hydro 2 p 1.8
       hydro 3 d 7.6
       hydro 3 s 6.4
  #  "Second tier" - improvements: -49.91 meV to -5.39 meV
       hydro 4 f 11.6
       hydro 3 p 6.2
       hydro 3 d 5.6
       hydro 5 g 17.6
       hydro 1 s 0.75
  #  "Third tier" - improvements: -2.83 meV to -0.50 meV
  #     ionic 2 p auto
  #     hydro 4 f 10.8
  #     hydro 4 d 4.7
  #     hydro 2 s 6.8
  #  "Fourth tier" - improvements: -0.40 meV to -0.12 meV
  #     hydro 3 p 5
  #     hydro 3 s 3.3
  #     hydro 5 g 15.6
  #     hydro 4 f 17.6
  #     hydro 4 d 14
  # Further basis functions - -0.08 meV and below
  #     hydro 3 s 2.1
  #     hydro 4 d 11.6
  #     hydro 3 p 16
  #     hydro 2 s 17.2
  
  
  -----------------------------------------------------------------------
  Completed first pass over input file control.in .
  -----------------------------------------------------------------------
  
  
  -----------------------------------------------------------------------
  Parsing geometry.in (first pass over file, find array dimensions only).
  The contents of geometry.in will be repeated verbatim below
  unless switched off by setting 'verbatim_writeout .false.' .
  in the first line of geometry.in .
  -----------------------------------------------------------------------
  
  atom      -4.053030000      0.065001000     -1.525160000  O
  atom      -4.566710000      0.974813000     -1.912820000  H
  atom      -3.067820000      0.330172000     -1.477310000  H
  atom      -4.370360000     -0.049164000     -0.572274000  H
  atom      -4.581760000     -0.256435000      0.939478000  O
  atom      -4.349860000      0.471090000      1.504340000  H
  atom      -5.393870000     -0.726611000      1.228070000  H
  atom      -5.293160000      2.192130000     -2.328800000  O
  atom      -4.829300000      2.988660000     -1.973850000  H
  atom      -5.428570000      2.328640000     -3.235170000  H
  atom      -1.645860000      0.870179000     -1.502250000  O
  atom      -1.568890000      1.501730000     -0.721051000  H
  atom      -0.824432000      0.282220000     -1.377720000  H
  atom      -5.628340000      3.730740000      1.385610000  O
  atom      -6.090650000      4.418470000      1.860350000  H
  atom      -5.158540000      4.200260000      0.615875000  H
  
  -----------------------------------------------------------------------
  Completed first pass over input file geometry.in .
  -----------------------------------------------------------------------
  
 
  Basic array size parameters: 
  | Number of species                 :        2
  | Number of atoms                   :       16
  | Max. basis fn. angular momentum   :        4
  | Max. atomic/ionic basis occupied n:        2
  | Max. number of basis fn. types    :        2
  | Max. radial fns per species/type  :        8
  | Max. logarithmic grid size        :     1301
  | Max. radial integration grid size :       73
  | Max. angular integration grid size:      302
  | Max. angular grid division number :        8
  | Radial grid for Hartree potential :     1301
  | Number of spin channels           :        1

------------------------------------------------------------
          Reading file control.in.
------------------------------------------------------------
  XC: Using RPBE gradient-corrected functionals.
  Spin treatment: No spin polarisation.
  Scalar relativistic treatment of kinetic energy: on-site free-atom approximation to ZORA.
  Charge =   0.000000E+00: Neutral system requested explicitly.
  Using non-empirical van der Waals correction (Hirshfeld partitioning):
  Occupation type: Gaussian broadening, width =   0.100000E-01 eV.
  Using pulay charge density mixing.
  Pulay mixing - number of memorized iterations:   10
  Charge density mixing - mixing parameter:     0.1000
  Convergence accuracy of self-consistent charge density: 0.5000E-04
  Convergence accuracy of sum of eigenvalues: 0.5000E-02
  Convergence accuracy of total energy: 0.5000E-05
  Maximum number of s.-c. iterations  :  3000
  Kohn-Sham eigenvalues and eigenfunctions calculated by lapack diagonalisation (D&C).
  Number of empty states per atom:        8
  Threshold for basis singularities: 0.0000E+00
  Partition function in integrals calculations: rho / r^2
 Using packed matrix format           0
  Convergence accuracy of forces: 0.5000E-03
  Cleaning forces before final output.
  Hirshfeld charge analysis will be performed.
 
  Reading configuration options for species H                   .
  | Found nuclear charge :   1.0000
  | Found cutoff potl. onset [A], width [A], scale factor :    4.00000    2.00000    1.00000
  | Found cutoff specification for free atom: Cutoff potential begins at    8.00000 A.
  | Found logarithmic grid data [bohr] : 0.1000E-03 0.1000E+03 0.1012E+01
  | Threshold for basis-dependent cutoff potential is   0.100000E-03
  | Found data for basic radial integration grid :    24 points, outermost radius =    7.000 A
  | Found multiplier for basic radial grid :   2
  | Found angular grid specification: user-specified.
  | Specified grid contains     4 separate shells.
  | Check grid settings after all constraints further below.
  | Found l_max for Hartree potential  :   4
  | Found free-atom valence shell :  1 s   1.000
  | No ionic wave fns used. Skipping ion_occ.
  | Found hydrogenic basis function :  2 s   2.100
  | Found hydrogenic basis function :  2 p   3.500
  | Found hydrogenic basis function :  1 s   0.850
  | Found hydrogenic basis function :  2 p   3.700
  | Found hydrogenic basis function :  2 s   1.200
  | Found hydrogenic basis function :  3 d   7.000
  Species H                   : Missing cutoff potential type.
  Defaulting to exp(1/x)/(1-x)^2 type cutoff potential.
  Species H : On-site basis accuracy parameter (for Gram-Schmidt orthonormalisation) not specified.
  Using default value basis_acc =  0.1000000E-03.
  Species H                   : Using default innermost maximum threshold i_radial=  2 for radial functions.
  Species H                   : Basic radial grid will be enhanced according to radial_multiplier =   2, to contain    49 grid points.
 
  Reading configuration options for species O                   .
  | Found nuclear charge :   8.0000
  | Found atomic mass :    15.9994000000000      amu
  | Found l_max for Hartree potential  :   4
  | Found cutoff potl. onset [A], width [A], scale factor :    4.00000    2.00000    1.00000
  | Found cutoff specification for free atom: Cutoff potential begins at    8.00000 A.
  | Threshold for basis-dependent cutoff potential is   0.100000E-03
  | Found logarithmic grid data [bohr] : 0.1000E-03 0.1000E+03 0.1012E+01
  | Found data for basic radial integration grid :    36 points, outermost radius =    7.000 A
  | Found multiplier for basic radial grid :   2
  | Found angular grid specification: user-specified.
  | Specified grid contains     4 separate shells.
  | Check grid settings after all constraints further below.
  | Found free-atom valence shell :  2 s   2.000
  | Found free-atom valence shell :  2 p   4.000
  | No ionic wave fns used. Skipping ion_occ.
  | No ionic wave fns used. Skipping ion_occ.
  | Found hydrogenic basis function :  2 p   1.800
  | Found hydrogenic basis function :  3 d   7.600
  | Found hydrogenic basis function :  3 s   6.400
  | Found hydrogenic basis function :  4 f  11.600
  | Found hydrogenic basis function :  3 p   6.200
  | Found hydrogenic basis function :  3 d   5.600
  | Found hydrogenic basis function :  5 g  17.600
  | Found hydrogenic basis function :  1 s   0.750
  Species O                   : Missing cutoff potential type.
  Defaulting to exp(1/x)/(1-x)^2 type cutoff potential.
  Species O : On-site basis accuracy parameter (for Gram-Schmidt orthonormalisation) not specified.
  Using default value basis_acc =  0.1000000E-03.
  Species O                   : Using default innermost maximum threshold i_radial=  2 for radial functions.
  Species O                   : Basic radial grid will be enhanced according to radial_multiplier =   2, to contain    73 grid points.
 
  Finished reading input file 'control.in'. Consistency checks are next.
 
  Target number of points in a grid batch is not set. Defaulting to  100
  Method for grid partitioning is not set. Defaulting to parallel hash+maxmin partitioning.
  Batch size limit is not set. Defaulting to    200
  By default, will store active basis functions for each batch.
  If in need of memory, prune_basis_once .false. can be used to disable this option.
  communication_type for Hartree potential was not specified.
  Defaulting to calc_hartree .
  Pulay mixer: Number of initial linear mixing iterations not set.
  Defaulting to    0 iterations.
  Work space size for distributed Hartree potential not set.
  Defaulting to   0.200000E+03 MB.
  Algorithm-dependent basis array size parameters:
  | n_max_pulay                         :       10
  Geometry relaxation not requested: no relaxation will be performed.
  Handling of forces: Unphysical translation and rotation will be removed from forces.
  No accuracy limit for integral partition fn. given. Defaulting to 0.1000E-14.
  No threshold value for u(r) in integrations given. Defaulting to 0.1000E-05.
  No accuracy for occupation numbers given. Defaulting to 0.1000E-07.
  No threshold value for occupation numbers given. Defaulting to 0.0000E+00.
  No accuracy for fermi level given. Defaulting to 0.1000E-19.
  Maximum # of iterations to find E_F not set. Defaulting to  200.
  Will not use alltoall communication since running on < 1024 CPUs.
  Partitioning for Hartree potential was not defined. Using partition_type for integrals.
  | Reporting present value of keyword multip_moments_threshold  :       0.10000000E-09
  | This value may affect high angular momentum components of the Hartree potential in periodic systems.
  No q(lm)/r^(l+1) cutoff set for long-range Hartree potential.
  | Using default value of  0.100000E-09 .
  | Verify using the multipole_threshold keyword.
  Defaulting to new monopole extrapolation.
  Density update method: Loop over occupied states selected for charge density update.
------------------------------------------------------------


------------------------------------------------------------
          Reading geometry description geometry.in.
------------------------------------------------------------
  Input structure read successfully.
  The structure contains       16 atoms,  and a total of         51.000 electrons.

  Input geometry:
  | No unit cell requested.
  | Atomic structure:
  |       Atom                x [A]            y [A]            z [A]
  |    1: Species O             -4.053030         0.065001        -1.525160
  |    2: Species H             -4.566710         0.974813        -1.912820
  |    3: Species H             -3.067820         0.330172        -1.477310
  |    4: Species H             -4.370360        -0.049164        -0.572274
  |    5: Species O             -4.581760        -0.256435         0.939478
  |    6: Species H             -4.349860         0.471090         1.504340
  |    7: Species H             -5.393870        -0.726611         1.228070
  |    8: Species O             -5.293160         2.192130        -2.328800
  |    9: Species H             -4.829300         2.988660        -1.973850
  |   10: Species H             -5.428570         2.328640        -3.235170
  |   11: Species O             -1.645860         0.870179        -1.502250
  |   12: Species H             -1.568890         1.501730        -0.721051
  |   13: Species H             -0.824432         0.282220        -1.377720
  |   14: Species O             -5.628340         3.730740         1.385610
  |   15: Species H             -6.090650         4.418470         1.860350
  |   16: Species H             -5.158540         4.200260         0.615875
  |

  | The smallest distance between any two atoms is         0.92654057 AA.
  |
  | The first atom of this pair is atom number                      8 .
  | The second atom of this pair is atom number                    10 .

  Structure-dependent array size parameters: 
  | Maximum number of distinct radial functions  :       18
  | Maximum number of basis functions            :      360
  | Number of Kohn-Sham states (occupied + empty):       90
------------------------------------------------------------

------------------------------------------------------------
          Preparing all fixed parts of the calculation.
------------------------------------------------------------
  Determining machine precision:
    2.225073858507201E-308
  Setting up grids for atomic and cluster calculations.

  Creating wave function, potential, and density for free atoms.

  Species: H

  List of occupied orbitals and eigenvalues:
    n    l              occ      energy [Ha]    energy [eV]
    1    0           1.0000        -0.241408        -6.5691


  Species: O

  List of occupied orbitals and eigenvalues:
    n    l              occ      energy [Ha]    energy [eV]
    1    0           2.0000       -18.944147      -515.4965
    2    0           2.0000        -0.883529       -24.0421
    2    1           4.0000        -0.330176        -8.9845

  Creating fixed part of basis set: Ionic, confined, hydrogenic.
 
  H                    hydrogenic:
 
  List of hydrogenic basis orbitals: 
    n    l      effective z      eigenvalue [eV]  inner max. [A]     outer max. [A]     outer radius [A]   
    2    0         2.100000       -14.9965           0.193241           1.317192           5.372934
    2    1         3.500000       -41.6672           0.602363           0.602363           4.056010
    1    0         0.850000        -9.8292           0.624864           0.624864           5.372934
    2    1         3.700000       -46.5653           0.573616           0.573616           3.909951
    2    0         1.200000        -4.5995           0.334977           2.228160           5.505921
    3    2         7.000000       -74.0753           0.680692           0.680692           3.769152
 
 
  O                    hydrogenic:
 
  List of hydrogenic basis orbitals: 
    n    l      effective z      eigenvalue [eV]  inner max. [A]     outer max. [A]     outer radius [A]   
    2    1         1.800000       -11.0118           1.178546           1.178546           5.432516
    3    2         7.600000       -87.3182           0.624117           0.624117           3.541422
    3    0         6.400000       -61.9209           0.061166           1.081887           4.306510
    4    3        11.600000      -114.4238           0.731621           0.731621           3.584982
    3    1         6.200000       -58.1113           0.255677           1.030255           4.306510
    3    2         5.600000       -47.4081           0.847222           0.847222           4.413102
    5    4        17.600000      -168.5799           0.749730           0.749730           3.372413
    1    0         0.750000        -7.6499           0.705275           0.705275           5.366508
 

  Adding cutoff potential to free-atom effective potential.
  Creating atomic-like basis functions for current effective potential.

  Species H                   :

  List of atomic basis orbitals and eigenvalues:
    n    l      energy [Ha]    energy [eV]    outer radius [A]
    1    0        -0.241374        -6.5681       5.372934


  Species O                   :

  List of atomic basis orbitals and eigenvalues:
    n    l      energy [Ha]    energy [eV]    outer radius [A]
    1    0       -18.944147      -515.4965       1.415745
    2    0        -0.883529       -24.0421       5.048305
    2    1        -0.330173        -8.9845       5.301302

  Assembling full basis from fixed parts.
  | Species H :   atomic orbital   1 s accepted.
  | Species H :    hydro orbital   2 s accepted.
  | Species H :    hydro orbital   1 s accepted.
  | Species H :    hydro orbital   2 s accepted.
  | Species H :    hydro orbital   2 p accepted.
  | Species H :    hydro orbital   2 p accepted.
  | Species H :    hydro orbital   3 d accepted.
  | Species O :   atomic orbital   1 s accepted.
  | Species O :    hydro orbital   3 s accepted.
  | Species O :   atomic orbital   2 s accepted.
  | Species O :    hydro orbital   1 s accepted.
  | Species O :    hydro orbital   3 p accepted.
  | Species O :   atomic orbital   2 p accepted.
  | Species O :    hydro orbital   2 p accepted.
  | Species O :    hydro orbital   3 d accepted.
  | Species O :    hydro orbital   3 d accepted.
  | Species O :    hydro orbital   4 f accepted.
  | Species O :    hydro orbital   5 g accepted.
 
  Basis size parameters after reduction:
  | Total number of radial functions:       18
  | Total number of basis functions :      360
 
  Testing on-site integration grid accuracy.
  |  Species  Function  <phi|h_atom|phi> (log., in eV)  <phi|h_atom|phi> (rad., in eV)
           1        1                 -6.5683835025                 -6.5684759159
           1        2                 13.3711789951                 13.3708738703
           1        3                 23.6590910787                 23.6532055418
           1        4                 16.2963827186                 16.1870710655 ***
           1        5                 28.7627214838                 28.7627215090
           1        6                 59.5965249172                 59.5965950857
           1        7                 60.2220506392                 60.2220503827
           2        8               -515.4964576505               -515.4964530710
           2        9                 15.3030791347                 15.3030722972
           2       10                -21.7296094581                -21.7296135470
           2       11                 14.2969371730                 14.2969701621
           2       12                 21.0679693190                 21.0679697493
           2       13                 -2.3833606469                 -2.3833613176
           2       14                 13.7067136422                 13.7066766629
           2       15                 45.8013116808                 45.8013116965
           2       16                 52.2309815402                 52.2309831494
           2       17                 85.4120732416                 85.4120732763
           2       18                142.1019167745                142.1019167817
 * Note: Onsite integrals marked "***" above are less accurate than
 * onsite_accuracy_threshold =    0.03000 eV. Usually, this is harmless.
 * When in doubt, tighten the "radial" and/or "radial_multiplier" flags to check.

  Preparing densities etc. for the partition functions (integrals / Hartree potential).

  Preparations completed.
  max(cpu_time)          :      0.171 s.
  Wall clock time (cpu1) :      0.498 s.
------------------------------------------------------------

------------------------------------------------------------
          Begin self-consistency loop: Initialization.

          Date     :  20150727, Time     :  115719.826
------------------------------------------------------------

  Initializing index lists of integration centers etc. from given atomic structure:
  | Number of centers in hartree potential         :        16
  | Number of centers in hartree multipole         :        16
  | Number of centers in electron density summation:        16
  | Number of centers in basis integrals           :        16
  | Number of centers in integrals                 :        16
  Partitioning the integration grid into batches with parallel hashing+maxmin method.
  | Number of batches:     2084
  | Maximal batch size:     184
  | Minimal batch size:      52
  | Average batch size:      99.954
  | Standard deviation of batch sizes:      32.966

  Integration load balanced across     8 MPI tasks.
  Work distribution over tasks is as follows:
  Task     0 has      26095 integration points.
  Task     1 has      26082 integration points.
  Task     2 has      25944 integration points.
  Task     3 has      26032 integration points.
  Task     4 has      25935 integration points.
  Task     5 has      26055 integration points.
  Task     6 has      26056 integration points.
  Task     7 has      26105 integration points.
  Initializing partition tables, free-atom densities, potentials, etc. across the integration grid (initialize_grid_storage).
  | Net number of integration points:   208304
  | of which are non-zero points    :   207736
  Obtaining max. number of non-zero basis functions in each batch (get_n_compute_maxes).
  | Maximal number of non-zero basis functions:      356 in task     0
  | Maximal number of non-zero basis functions:      356 in task     1
  | Maximal number of non-zero basis functions:      356 in task     2
  | Maximal number of non-zero basis functions:      356 in task     3
  | Maximal number of non-zero basis functions:      356 in task     4
  | Maximal number of non-zero basis functions:      356 in task     5
  | Maximal number of non-zero basis functions:      357 in task     6
  | Maximal number of non-zero basis functions:      351 in task     7
  Integrating Hamiltonian matrix: batch-based integration.
  Time summed over all CPUs for integration: real work        7.689 s, elapsed        7.864 s
  Integrating overlap matrix.
  Time summed over all CPUs for integration: real work        4.155 s, elapsed        4.182 s

  Updating Kohn-Sham eigenvalues, eigenvectors, occupation numbers, and Fermi level.
  Solving generalized eigenproblem
  Updating Kohn-Sham eigenvalues and eigenfunctions.
  Transforming overlap matrix and checking for singularities.
  Overlap matrix is nonsingular:
  | Lowest eigenvalue:  0.196805E-03
  Solving real generalised eigenvalue problem by standard LAPACK (fast)
  Determining occupation numbers for Kohn-Sham eigenstates.
  | Chemical potential (Fermi level) in eV                 : -.27092472E+01
  | Error in electron count due to remaining E_F inaccuracy: 0.00000000E+00
  | Maximum occupation number of highest empty state:  0.00E+00

  Writing Kohn-Sham eigenvalues.

  State    Occupation    Eigenvalue [Ha]    Eigenvalue [eV]
      1       2.00000         -19.065397         -518.79584
      2       2.00000         -19.064864         -518.78134
      3       2.00000         -19.059135         -518.62544
      4       2.00000         -19.044509         -518.22745
      5       2.00000         -19.042480         -518.17225
      6       2.00000          -1.131897          -30.80048
      7       2.00000          -1.117102          -30.39789
      8       2.00000          -1.104089          -30.04378
      9       2.00000          -1.089096          -29.63582
     10       2.00000          -1.081619          -29.43235
     11       2.00000          -0.652000          -17.74183
     12       2.00000          -0.650947          -17.71316
     13       2.00000          -0.647697          -17.62474
     14       2.00000          -0.626649          -17.05199
     15       2.00000          -0.618258          -16.82365
     16       2.00000          -0.602575          -16.39690
     17       2.00000          -0.542429          -14.76025
     18       2.00000          -0.509351          -13.86016
     19       2.00000          -0.504594          -13.73070
     20       2.00000          -0.501533          -13.64741
     21       2.00000          -0.483171          -13.14775
     22       2.00000          -0.452755          -12.32010
     23       2.00000          -0.446093          -12.13880
     24       2.00000          -0.435851          -11.86012
     25       2.00000          -0.430161          -11.70529
     26       1.00000          -0.099563           -2.70925
     27       0.00000          -0.074144           -2.01757
     28       0.00000          -0.064390           -1.75215
     29       0.00000          -0.053946           -1.46794
     30       0.00000          -0.021076           -0.57350
     31       0.00000          -0.009561           -0.26016
     32       0.00000           0.004608            0.12540
     33       0.00000           0.009025            0.24558
     34       0.00000           0.026030            0.70830
     35       0.00000           0.048626            1.32317
     36       0.00000           0.057583            1.56690
     37       0.00000           0.072022            1.95983
     38       0.00000           0.083027            2.25928
     39       0.00000           0.086676            2.35858
     40       0.00000           0.094663            2.57592
     41       0.00000           0.099653            2.71169
     42       0.00000           0.105246            2.86389
     43       0.00000           0.115533            3.14382
     44       0.00000           0.119282            3.24582
     45       0.00000           0.121235            3.29898
     46       0.00000           0.131508            3.57851
     47       0.00000           0.141358            3.84655
     48       0.00000           0.145034            3.94657
     49       0.00000           0.159495            4.34007
     50       0.00000           0.162179            4.41312
     51       0.00000           0.171919            4.67816
     52       0.00000           0.191985            5.22417
     53       0.00000           0.204831            5.57374
     54       0.00000           0.219766            5.98015
     55       0.00000           0.227204            6.18254
     56       0.00000           0.234677            6.38588
     57       0.00000           0.242556            6.60028
     58       0.00000           0.271379            7.38459
     59       0.00000           0.292847            7.96877
     60       0.00000           0.298443            8.12105
     61       0.00000           0.306959            8.35278
     62       0.00000           0.322592            8.77817
     63       0.00000           0.339551            9.23966
     64       0.00000           0.357630            9.73162
     65       0.00000           0.366601            9.97571
     66       0.00000           0.373033           10.15075
     67       0.00000           0.388986           10.58486
     68       0.00000           0.404085           10.99572
     69       0.00000           0.405170           11.02524
     70       0.00000           0.416424           11.33149
     71       0.00000           0.433886           11.80663
     72       0.00000           0.438642           11.93606
     73       0.00000           0.455831           12.40380
     74       0.00000           0.460244           12.52388
     75       0.00000           0.474408           12.90930
     76       0.00000           0.483899           13.16757
     77       0.00000           0.501658           13.65081
     78       0.00000           0.520245           14.15660
     79       0.00000           0.528140           14.37142
     80       0.00000           0.545324           14.83903
     81       0.00000           0.565084           15.37671
     82       0.00000           0.576313           15.68228
     83       0.00000           0.597138           16.24895
     84       0.00000           0.619742           16.86404
     85       0.00000           0.655849           17.84656
     86       0.00000           0.692966           18.85657
     87       0.00000           0.723634           19.69109
     88       0.00000           0.748296           20.36217
     89       0.00000           0.760417           20.69201
     90       0.00000           0.776621           21.13294

  Highest occupied state (VBM) at     -2.70924721 eV
  | Occupation number:      1.00000000

  Lowest unoccupied state (CBM) at    -2.70924721 eV
  | Occupation number:      1.00000000

  Overall HOMO-LUMO gap:      0.00000000 eV.
  Calculating total energy contributions from superposition of free atom densities.

  Total energy components:
  | Sum of eigenvalues            :        -217.90806690 Ha       -5929.58019417 eV
  | XC energy correction          :         -45.96862649 Ha       -1250.86997037 eV
  | XC potential correction       :          58.75290393 Ha        1598.74785926 eV
  | Free-atom electrostatic energy:        -178.41896118 Ha       -4855.02695478 eV
  | Hartree energy correction     :           0.00000000 Ha           0.00000000 eV
  | van der Waals energy corr.    :           0.00000000 Ha           0.00000000 eV
  | Entropy correction            :          -0.00010367 Ha          -0.00282095 eV
  | ---------------------------
  | Total energy                  :        -383.54275065 Ha      -10436.72926006 eV
  | Total energy, T -> 0          :        -383.54285432 Ha      -10436.73208101 eV  <-- do not rely on this value for anything but (periodic) metals
  | Electronic free energy        :        -383.54295798 Ha      -10436.73490196 eV

  Derived energy quantities:
  | Kinetic energy                :         379.91574783 Ha       10338.03349172 eV
  | Electrostatic energy          :        -717.48987198 Ha      -19523.89278140 eV
  | Energy correction for multipole
  | error in Hartree potential    :           0.00000000 Ha           0.00000000 eV
  | Sum of eigenvalues per atom                           :        -370.59876214 eV
  | Total energy (T->0) per atom                          :        -652.29575506 eV  <-- do not rely on this value for anything but (periodic) metals
  | Electronic free energy per atom                       :        -652.29593137 eV
  Initialize hartree_potential_storage
  Max. number of atoms included in rho_multipole:           16

  End scf initialization - timings             :  max(cpu_time)    wall_clock(cpu1)
  | Time for scf. initialization               :        2.116 s           2.115 s
  | Boundary condition initialization          :        0.000 s           0.000 s
  | Integration                                :        1.509 s           1.509 s
  | Solution of K.-S. eqns.                    :        0.212 s           0.212 s
  | Grid partitioning                          :        0.158 s           0.157 s
  | Preloading free-atom quantities on grid    :        0.013 s           0.013 s
  | Free-atom superposition energy             :        0.073 s           0.073 s
  | Total energy evaluation                    :        0.000 s           0.000 s
------------------------------------------------------------

------------------------------------------------------------
          Begin self-consistency iteration #    1

  Date     :  20150727, Time     :  115721.942
------------------------------------------------------------
  Evaluating new KS density.
  Integration grid: deviation in total charge (<rho> - N_e) =   7.105427E-15
  Pulay mixing of updated and previous charge densities.

  Evaluating partitioned Hartree potential by multipole expansion.
  | Analytical far-field extrapolation by fixed multipoles:
  | Hartree multipole sum: apparent total charge =  -0.114349E-05
  Summing up the Hartree potential.
  Time summed over all CPUs for potential: real work        2.892 s, elapsed        2.902 s
  | RMS charge density error from multipole expansion :   0.168807E-02

  Integrating Hamiltonian matrix: batch-based integration.
  Time summed over all CPUs for integration: real work        7.674 s, elapsed        7.852 s

  Updating Kohn-Sham eigenvalues, eigenvectors, occupation numbers, and Fermi level.
  Solving generalized eigenproblem
  Updating Kohn-Sham eigenvalues and eigenfunctions.
  Solving real generalised eigenvalue problem by standard LAPACK (fast)
  Determining occupation numbers for Kohn-Sham eigenstates.
  | Chemical potential (Fermi level) in eV                 : -.24983930E+01
  | Error in electron count due to remaining E_F inaccuracy: 0.32018477E-09
  | Maximum occupation number of highest empty state:  0.00E+00

  Writing Kohn-Sham eigenvalues.

  State    Occupation    Eigenvalue [Ha]    Eigenvalue [eV]
      1       2.00000         -19.004441         -517.13715
      2       2.00000         -18.994718         -516.87256
      3       2.00000         -18.987844         -516.68551
      4       2.00000         -18.976276         -516.37074
      5       2.00000         -18.961502         -515.96873
      6       2.00000          -1.100865          -29.95606
      7       2.00000          -1.083773          -29.49096
      8       2.00000          -1.070250          -29.12297
      9       2.00000          -1.049832          -28.56738
     10       2.00000          -1.046441          -28.47511
     11       2.00000          -0.623566          -16.96808
     12       2.00000          -0.621937          -16.92378
     13       2.00000          -0.619909          -16.86859
     14       2.00000          -0.600145          -16.33077
     15       2.00000          -0.581419          -15.82121
     16       2.00000          -0.575963          -15.67275
     17       2.00000          -0.511148          -13.90905
     18       2.00000          -0.476767          -12.97349
     19       2.00000          -0.471063          -12.81827
     20       2.00000          -0.459210          -12.49573
     21       2.00000          -0.450788          -12.26655
     22       2.00000          -0.417852          -11.37032
     23       2.00000          -0.410400          -11.16755
     24       2.00000          -0.402416          -10.95030
     25       2.00000          -0.385825          -10.49882
     26       1.00000          -0.091814           -2.49839
     27       0.00000          -0.066611           -1.81258
     28       0.00000          -0.057373           -1.56119
     29       0.00000          -0.046057           -1.25329
     30       0.00000          -0.014682           -0.39951
     31       0.00000          -0.002455           -0.06681
     32       0.00000           0.011709            0.31862
     33       0.00000           0.018177            0.49463
     34       0.00000           0.034628            0.94227
     35       0.00000           0.054946            1.49516
     36       0.00000           0.063164            1.71877
     37       0.00000           0.080627            2.19398
     38       0.00000           0.090446            2.46115
     39       0.00000           0.095512            2.59902
     40       0.00000           0.103491            2.81614
     41       0.00000           0.105721            2.87682
     42       0.00000           0.112164            3.05215
     43       0.00000           0.124265            3.38142
     44       0.00000           0.128780            3.50428
     45       0.00000           0.129727            3.53004
     46       0.00000           0.144886            3.94255
     47       0.00000           0.152163            4.14055
     48       0.00000           0.158760            4.32007
     49       0.00000           0.168390            4.58212
     50       0.00000           0.169697            4.61769
     51       0.00000           0.179267            4.87810
     52       0.00000           0.200230            5.44853
     53       0.00000           0.213466            5.80872
     54       0.00000           0.227716            6.19647
     55       0.00000           0.234485            6.38066
     56       0.00000           0.241463            6.57055
     57       0.00000           0.249324            6.78445
     58       0.00000           0.280171            7.62385
     59       0.00000           0.298986            8.13582
     60       0.00000           0.303838            8.26785
     61       0.00000           0.314062            8.54606
     62       0.00000           0.329706            8.97175
     63       0.00000           0.347327            9.45125
     64       0.00000           0.365924            9.95729
     65       0.00000           0.374470           10.18984
     66       0.00000           0.380852           10.36351
     67       0.00000           0.397131           10.80649
     68       0.00000           0.412835           11.23381
     69       0.00000           0.413532           11.25277
     70       0.00000           0.424837           11.56040
     71       0.00000           0.442533           12.04193
     72       0.00000           0.446868           12.15990
     73       0.00000           0.464335           12.63521
     74       0.00000           0.468217           12.74082
     75       0.00000           0.483986           13.16994
     76       0.00000           0.494216           13.44830
     77       0.00000           0.511258           13.91204
     78       0.00000           0.529898           14.41927
     79       0.00000           0.540116           14.69732
     80       0.00000           0.554952           15.10100
     81       0.00000           0.575495           15.66003
     82       0.00000           0.585835           15.94137
     83       0.00000           0.608290           16.55242
     84       0.00000           0.629707           17.13519
     85       0.00000           0.666877           18.14666
     86       0.00000           0.703592           19.14570
     87       0.00000           0.733418           19.95733
     88       0.00000           0.759065           20.65521
     89       0.00000           0.772838           21.03000
     90       0.00000           0.785158           21.36524

  Highest occupied state (VBM) at     -2.49839299 eV
  | Occupation number:      1.00000000

  Lowest unoccupied state (CBM) at    -1.81257678 eV
  | Occupation number:      0.00000000

  Overall HOMO-LUMO gap:      0.68581621 eV.

  Total energy components:
  | Sum of eigenvalues            :        -215.86050865 Ha       -5873.86329933 eV
  | XC energy correction          :         -46.19012832 Ha       -1256.89734186 eV
  | XC potential correction       :          59.04223930 Ha        1606.62107527 eV
  | Free-atom electrostatic energy:        -178.41896118 Ha       -4855.02695478 eV
  | Hartree energy correction     :          -1.99563879 Ha         -54.30409433 eV
  | van der Waals energy corr.    :           0.00000000 Ha           0.00000000 eV
  | Entropy correction            :          -0.00010367 Ha          -0.00282095 eV
  | ---------------------------
  | Total energy                  :        -383.42299764 Ha      -10433.47061504 eV
  | Total energy, T -> 0          :        -383.42310131 Ha      -10433.47343598 eV  <-- do not rely on this value for anything but (periodic) metals
  | Electronic free energy        :        -383.42320498 Ha      -10433.47625693 eV

  Derived energy quantities:
  | Kinetic energy                :         381.26796912 Ha       10374.82930527 eV
  | Electrostatic energy          :        -718.50083844 Ha      -19551.40257845 eV
  | Energy correction for multipole
  | error in Hartree potential    :           0.00019300 Ha           0.00525193 eV
  | Sum of eigenvalues per atom                           :        -367.11645621 eV
  | Total energy (T->0) per atom                          :        -652.09208975 eV  <-- do not rely on this value for anything but (periodic) metals
  | Electronic free energy per atom                       :        -652.09226606 eV

  Self-consistency convergence accuracy:
  | Change of charge density      : 0.6375E+00
  | Change of sum of eigenvalues  : 0.5572E+02 eV
  | Change of total energy        : 0.3259E+01 eV

  End self-consistency iteration #     1       :  max(cpu_time)    wall_clock(cpu1)
  | Time for this iteration                    :        2.073 s           2.073 s
  | Charge density update                      :        0.659 s           0.659 s
  | Density mixing                             :        0.004 s           0.003 s
  | Hartree multipole update                   :        0.005 s           0.006 s
  | Hartree multipole summation                :        0.364 s           0.363 s
  | Integration                                :        0.983 s           0.983 s
  | Solution of K.-S. eqns.                    :        0.057 s           0.058 s
  | Total energy evaluation                    :        0.000 s           0.001 s
------------------------------------------------------------

------------------------------------------------------------
          Begin self-consistency iteration #    2

  Date     :  20150727, Time     :  115724.015
------------------------------------------------------------
  Evaluating new KS density.
  Integration grid: deviation in total charge (<rho> - N_e) =   3.201919E-10
  Pulay mixing of updated and previous charge densities.

  Evaluating partitioned Hartree potential by multipole expansion.
  | Analytical far-field extrapolation by fixed multipoles:
  | Hartree multipole sum: apparent total charge =  -0.362357E-05
  Summing up the Hartree potential.
  Time summed over all CPUs for potential: real work        2.892 s, elapsed        2.902 s
  | RMS charge density error from multipole expansion :   0.689881E-02

  Integrating Hamiltonian matrix: batch-based integration.
  Time summed over all CPUs for integration: real work        7.658 s, elapsed        7.827 s

  Updating Kohn-Sham eigenvalues, eigenvectors, occupation numbers, and Fermi level.
  Solving generalized eigenproblem
  Updating Kohn-Sham eigenvalues and eigenfunctions.
  Solving real generalised eigenvalue problem by standard LAPACK (fast)
  Determining occupation numbers for Kohn-Sham eigenstates.
  | Chemical potential (Fermi level) in eV                 : -.20015553E+01
  | Error in electron count due to remaining E_F inaccuracy: 0.29397285E-09
  | Maximum occupation number of highest empty state:  0.00E+00

  Highest occupied state (VBM) at     -2.00155529 eV
  | Occupation number:      1.00000000

  Lowest unoccupied state (CBM) at    -1.32050358 eV
  | Occupation number:      0.00000000

  Overall HOMO-LUMO gap:      0.68105171 eV.

  Total energy components:
  | Sum of eigenvalues            :        -210.89847298 Ha       -5738.83943873 eV
  | XC energy correction          :         -46.75503468 Ha       -1272.26922607 eV
  | XC potential correction       :          59.77860825 Ha        1626.65869396 eV
  | Free-atom electrostatic energy:        -178.41896118 Ha       -4855.02695478 eV
  | Hartree energy correction     :          -6.99273759 Ha        -190.28207113 eV
  | van der Waals energy corr.    :           0.00000000 Ha           0.00000000 eV
  | Entropy correction            :          -0.00010367 Ha          -0.00282095 eV
  | ---------------------------
  | Total energy                  :        -383.28659818 Ha      -10429.75899677 eV
  | Total energy, T -> 0          :        -383.28670185 Ha      -10429.76181771 eV  <-- do not rely on this value for anything but (periodic) metals
  | Electronic free energy        :        -383.28680552 Ha      -10429.76463866 eV

  Derived energy quantities:
  | Kinetic energy                :         384.12338031 Ha       10452.52899709 eV
  | Electrostatic energy          :        -720.65494381 Ha      -19610.01876779 eV
  | Energy correction for multipole
  | error in Hartree potential    :          -0.00013968 Ha          -0.00380095 eV
  | Sum of eigenvalues per atom                           :        -358.67746492 eV
  | Total energy (T->0) per atom                          :        -651.86011361 eV  <-- do not rely on this value for anything but (periodic) metals
  | Electronic free energy per atom                       :        -651.86028992 eV

  Self-consistency convergence accuracy:
  | Change of charge density      : 0.4853E+00
  | Change of sum of eigenvalues  : 0.1350E+03 eV
  | Change of total energy        : 0.3712E+01 eV

  End self-consistency iteration #     2       :  max(cpu_time)    wall_clock(cpu1)
  | Time for this iteration                    :        2.067 s           2.067 s
  | Charge density update                      :        0.655 s           0.655 s
  | Density mixing                             :        0.006 s           0.006 s
  | Hartree multipole update                   :        0.005 s           0.005 s
  | Hartree multipole summation                :        0.364 s           0.363 s
  | Integration                                :        0.980 s           0.980 s
  | Solution of K.-S. eqns.                    :        0.057 s           0.057 s
  | Total energy evaluation                    :        0.000 s           0.001 s
------------------------------------------------------------

------------------------------------------------------------
          Begin self-consistency iteration #    3

  Date     :  20150727, Time     :  115726.082
------------------------------------------------------------
  Evaluating new KS density.
  Integration grid: deviation in total charge (<rho> - N_e) =   2.939657E-10
  Pulay mixing of updated and previous charge densities.

  Evaluating partitioned Hartree potential by multipole expansion.
  | Analytical far-field extrapolation by fixed multipoles:
  | Hartree multipole sum: apparent total charge =  -0.334399E-05
  Summing up the Hartree potential.
  Time summed over all CPUs for potential: real work        2.893 s, elapsed        2.902 s
  | RMS charge density error from multipole expansion :   0.142900E-01

  Integrating Hamiltonian matrix: batch-based integration.
  Time summed over all CPUs for integration: real work        7.659 s, elapsed        7.836 s

  Updating Kohn-Sham eigenvalues, eigenvectors, occupation numbers, and Fermi level.
  Solving generalized eigenproblem
  Updating Kohn-Sham eigenvalues and eigenfunctions.
  Solving real generalised eigenvalue problem by standard LAPACK (fast)
  Determining occupation numbers for Kohn-Sham eigenstates.
  | Chemical potential (Fermi level) in eV                 : -.19452616E+01
  | Error in electron count due to remaining E_F inaccuracy: 0.77348261E-09
  | Maximum occupation number of highest empty state:  0.00E+00

  Highest occupied state (VBM) at     -1.94526161 eV
  | Occupation number:      1.00000000

  Lowest unoccupied state (CBM) at    -1.22922344 eV
  | Occupation number:      0.00000000

  Overall HOMO-LUMO gap:      0.71603817 eV.

  Total energy components:
  | Sum of eigenvalues            :        -211.21603070 Ha       -5747.48062394 eV
  | XC energy correction          :         -46.75003387 Ha       -1272.13314695 eV
  | XC potential correction       :          59.76331656 Ha        1626.24258582 eV
  | Free-atom electrostatic energy:        -178.41896118 Ha       -4855.02695478 eV
  | Hartree energy correction     :          -6.66393666 Ha        -181.33494277 eV
  | van der Waals energy corr.    :           0.00000000 Ha           0.00000000 eV
  | Entropy correction            :          -0.00010367 Ha          -0.00282095 eV
  | ---------------------------
  | Total energy                  :        -383.28564585 Ha      -10429.73308263 eV
  | Total energy, T -> 0          :        -383.28574952 Ha      -10429.73590357 eV  <-- do not rely on this value for anything but (periodic) metals
  | Electronic free energy        :        -383.28585319 Ha      -10429.73872452 eV

  Derived energy quantities:
  | Kinetic energy                :         382.27333984 Ha       10402.18683445 eV
  | Electrostatic energy          :        -718.80895182 Ha      -19559.78677013 eV
  | Energy correction for multipole
  | error in Hartree potential    :          -0.00511536 Ha          -0.13919602 eV
  | Sum of eigenvalues per atom                           :        -359.21753900 eV
  | Total energy (T->0) per atom                          :        -651.85849397 eV  <-- do not rely on this value for anything but (periodic) metals
  | Electronic free energy per atom                       :        -651.85867028 eV

  Self-consistency convergence accuracy:
  | Change of charge density      : 0.2353E+00
  | Change of sum of eigenvalues  : -.8641E+01 eV
  | Change of total energy        : 0.2591E-01 eV

  End self-consistency iteration #     3       :  max(cpu_time)    wall_clock(cpu1)
  | Time for this iteration                    :        2.062 s           2.062 s
  | Charge density update                      :        0.648 s           0.648 s
  | Density mixing                             :        0.007 s           0.007 s
  | Hartree multipole update                   :        0.005 s           0.005 s
  | Hartree multipole summation                :        0.364 s           0.364 s
  | Integration                                :        0.981 s           0.981 s
  | Solution of K.-S. eqns.                    :        0.057 s           0.056 s
  | Total energy evaluation                    :        0.000 s           0.000 s
------------------------------------------------------------

------------------------------------------------------------
          Begin self-consistency iteration #    4

  Date     :  20150727, Time     :  115728.144
------------------------------------------------------------
  Evaluating new KS density.
  Integration grid: deviation in total charge (<rho> - N_e) =   7.734826E-10
  Pulay mixing of updated and previous charge densities.

  Evaluating partitioned Hartree potential by multipole expansion.
  | Analytical far-field extrapolation by fixed multipoles:
  | Hartree multipole sum: apparent total charge =  -0.382311E-05
  Summing up the Hartree potential.
  Time summed over all CPUs for potential: real work        2.891 s, elapsed        2.901 s
  | RMS charge density error from multipole expansion :   0.171463E-01

  Integrating Hamiltonian matrix: batch-based integration.
  Time summed over all CPUs for integration: real work        7.650 s, elapsed        7.833 s

  Updating Kohn-Sham eigenvalues, eigenvectors, occupation numbers, and Fermi level.
  Solving generalized eigenproblem
  Updating Kohn-Sham eigenvalues and eigenfunctions.
  Solving real generalised eigenvalue problem by standard LAPACK (fast)
  Determining occupation numbers for Kohn-Sham eigenstates.
  | Chemical potential (Fermi level) in eV                 : -.18498302E+01
  | Error in electron count due to remaining E_F inaccuracy: 0.00000000E+00
  | Maximum occupation number of highest empty state:  0.00E+00

  Highest occupied state (VBM) at     -1.84983022 eV
  | Occupation number:      1.00000000

  Lowest unoccupied state (CBM) at    -1.84983022 eV
  | Occupation number:      1.00000000

  Overall HOMO-LUMO gap:      0.00000000 eV.

  Total energy components:
  | Sum of eigenvalues            :        -210.27127850 Ha       -5721.77260844 eV
  | XC energy correction          :         -46.87747215 Ha       -1275.60091905 eV
  | XC potential correction       :          59.92763701 Ha        1630.71397294 eV
  | Free-atom electrostatic energy:        -178.41896118 Ha       -4855.02695478 eV
  | Hartree energy correction     :          -7.64026357 Ha        -207.90214964 eV
  | van der Waals energy corr.    :           0.00000000 Ha           0.00000000 eV
  | Entropy correction            :          -0.00010367 Ha          -0.00282095 eV
  | ---------------------------
  | Total energy                  :        -383.28033838 Ha      -10429.58865898 eV
  | Total energy, T -> 0          :        -383.28044205 Ha      -10429.59147992 eV  <-- do not rely on this value for anything but (periodic) metals
  | Electronic free energy        :        -383.28054572 Ha      -10429.59430087 eV

  Derived energy quantities:
  | Kinetic energy                :         382.40304509 Ha       10405.71629390 eV
  | Electrostatic energy          :        -718.80591132 Ha      -19559.70403383 eV
  | Energy correction for multipole
  | error in Hartree potential    :          -0.00645990 Ha          -0.17578294 eV
  | Sum of eigenvalues per atom                           :        -357.61078803 eV
  | Total energy (T->0) per atom                          :        -651.84946750 eV  <-- do not rely on this value for anything but (periodic) metals
  | Electronic free energy per atom                       :        -651.84964380 eV

  Self-consistency convergence accuracy:
  | Change of charge density      : 0.1078E+00
  | Change of sum of eigenvalues  : 0.2571E+02 eV
  | Change of total energy        : 0.1444E+00 eV

  End self-consistency iteration #     4       :  max(cpu_time)    wall_clock(cpu1)
  | Time for this iteration                    :        2.065 s           2.065 s
  | Charge density update                      :        0.650 s           0.650 s
  | Density mixing                             :        0.008 s           0.008 s
  | Hartree multipole update                   :        0.004 s           0.005 s
  | Hartree multipole summation                :        0.364 s           0.364 s
  | Integration                                :        0.981 s           0.980 s
  | Solution of K.-S. eqns.                    :        0.057 s           0.057 s
  | Total energy evaluation                    :        0.000 s           0.001 s
------------------------------------------------------------

------------------------------------------------------------
          Begin self-consistency iteration #    5

  Date     :  20150727, Time     :  115730.209
------------------------------------------------------------
  Evaluating new KS density.
  Integration grid: deviation in total charge (<rho> - N_e) =   2.842171E-14
  Pulay mixing of updated and previous charge densities.

  Evaluating partitioned Hartree potential by multipole expansion.
  | Analytical far-field extrapolation by fixed multipoles:
  | Hartree multipole sum: apparent total charge =  -0.390315E-05
  Summing up the Hartree potential.
  Time summed over all CPUs for potential: real work        2.891 s, elapsed        2.901 s
  | RMS charge density error from multipole expansion :   0.180503E-01

  Integrating Hamiltonian matrix: batch-based integration.
  Time summed over all CPUs for integration: real work        7.641 s, elapsed        7.825 s

  Updating Kohn-Sham eigenvalues, eigenvectors, occupation numbers, and Fermi level.
  Solving generalized eigenproblem
  Updating Kohn-Sham eigenvalues and eigenfunctions.
  Solving real generalised eigenvalue problem by standard LAPACK (fast)
  Determining occupation numbers for Kohn-Sham eigenstates.
  | Chemical potential (Fermi level) in eV                 : -.18418997E+01
  | Error in electron count due to remaining E_F inaccuracy: 0.43824571E-08
  | Maximum occupation number of highest empty state:  0.00E+00

  Highest occupied state (VBM) at     -1.84189970 eV
  | Occupation number:      1.00000000

  Lowest unoccupied state (CBM) at    -1.12181295 eV
  | Occupation number:      0.00000000

  Overall HOMO-LUMO gap:      0.72008675 eV.

  Total energy components:
  | Sum of eigenvalues            :        -210.07824626 Ha       -5716.51993400 eV
  | XC energy correction          :         -46.90496227 Ha       -1276.34896327 eV
  | XC potential correction       :          59.96269809 Ha        1631.66803327 eV
  | Free-atom electrostatic energy:        -178.41896118 Ha       -4855.02695478 eV
  | Hartree energy correction     :          -7.84046707 Ha        -213.34996406 eV
  | van der Waals energy corr.    :           0.00000000 Ha           0.00000000 eV
  | Entropy correction            :          -0.00010367 Ha          -0.00282095 eV
  | ---------------------------
  | Total energy                  :        -383.27993869 Ha      -10429.57778285 eV
  | Total energy, T -> 0          :        -383.28004236 Ha      -10429.58060380 eV  <-- do not rely on this value for anything but (periodic) metals
  | Electronic free energy        :        -383.28014603 Ha      -10429.58342475 eV

  Derived energy quantities:
  | Kinetic energy                :         382.43013049 Ha       10406.45332523 eV
  | Electrostatic energy          :        -718.80510691 Ha      -19559.68214481 eV
  | Energy correction for multipole
  | error in Hartree potential    :          -0.00709400 Ha          -0.19303757 eV
  | Sum of eigenvalues per atom                           :        -357.28249587 eV
  | Total energy (T->0) per atom                          :        -651.84878774 eV  <-- do not rely on this value for anything but (periodic) metals
  | Electronic free energy per atom                       :        -651.84896405 eV

  Self-consistency convergence accuracy:
  | Change of charge density      : 0.3573E-01
  | Change of sum of eigenvalues  : 0.5253E+01 eV
  | Change of total energy        : 0.1088E-01 eV

  End self-consistency iteration #     5       :  max(cpu_time)    wall_clock(cpu1)
  | Time for this iteration                    :        2.066 s           2.065 s
  | Charge density update                      :        0.650 s           0.649 s
  | Density mixing                             :        0.010 s           0.010 s
  | Hartree multipole update                   :        0.005 s           0.005 s
  | Hartree multipole summation                :        0.363 s           0.364 s
  | Integration                                :        0.980 s           0.979 s
  | Solution of K.-S. eqns.                    :        0.058 s           0.058 s
  | Total energy evaluation                    :        0.000 s           0.000 s
------------------------------------------------------------

------------------------------------------------------------
          Begin self-consistency iteration #    6

  Date     :  20150727, Time     :  115732.275
------------------------------------------------------------
  Evaluating new KS density.
  Integration grid: deviation in total charge (<rho> - N_e) =   4.382493E-09
  Pulay mixing of updated and previous charge densities.

  Evaluating partitioned Hartree potential by multipole expansion.
  | Analytical far-field extrapolation by fixed multipoles:
  | Hartree multipole sum: apparent total charge =  -0.379569E-05
  Summing up the Hartree potential.
  Time summed over all CPUs for potential: real work        2.891 s, elapsed        2.901 s
  | RMS charge density error from multipole expansion :   0.183398E-01

  Integrating Hamiltonian matrix: batch-based integration.
  Time summed over all CPUs for integration: real work        7.652 s, elapsed        7.830 s

  Updating Kohn-Sham eigenvalues, eigenvectors, occupation numbers, and Fermi level.
  Solving generalized eigenproblem
  Updating Kohn-Sham eigenvalues and eigenfunctions.
  Solving real generalised eigenvalue problem by standard LAPACK (fast)
  Determining occupation numbers for Kohn-Sham eigenstates.
  | Chemical potential (Fermi level) in eV                 : -.18449096E+01
  | Error in electron count due to remaining E_F inaccuracy: 0.43485215E-11
  | Maximum occupation number of highest empty state:  0.00E+00

  Highest occupied state (VBM) at     -1.84490956 eV
  | Occupation number:      1.00000000

  Lowest unoccupied state (CBM) at    -1.12408427 eV
  | Occupation number:      0.00000000

  Overall HOMO-LUMO gap:      0.72082530 eV.

  Total energy components:
  | Sum of eigenvalues            :        -210.07044610 Ha       -5716.30768099 eV
  | XC energy correction          :         -46.90773946 Ha       -1276.42453459 eV
  | XC potential correction       :          59.96599622 Ha        1631.75777996 eV
  | Free-atom electrostatic energy:        -178.41896118 Ha       -4855.02695478 eV
  | Hartree energy correction     :          -7.84882369 Ha        -213.57735927 eV
  | van der Waals energy corr.    :           0.00000000 Ha           0.00000000 eV
  | Entropy correction            :          -0.00010367 Ha          -0.00282095 eV
  | ---------------------------
  | Total energy                  :        -383.27997422 Ha      -10429.57874968 eV
  | Total energy, T -> 0          :        -383.28007789 Ha      -10429.58157062 eV  <-- do not rely on this value for anything but (periodic) metals
  | Electronic free energy        :        -383.28018156 Ha      -10429.58439157 eV

  Derived energy quantities:
  | Kinetic energy                :         382.40828111 Ha       10405.85877331 eV
  | Electrostatic energy          :        -718.78051587 Ha      -19559.01298839 eV
  | Energy correction for multipole
  | error in Hartree potential    :          -0.00733396 Ha          -0.19956713 eV
  | Sum of eigenvalues per atom                           :        -357.26923006 eV
  | Total energy (T->0) per atom                          :        -651.84884816 eV  <-- do not rely on this value for anything but (periodic) metals
  | Electronic free energy per atom                       :        -651.84902447 eV

  Self-consistency convergence accuracy:
  | Change of charge density      : 0.7382E-02
  | Change of sum of eigenvalues  : 0.2123E+00 eV
  | Change of total energy        : -.9668E-03 eV

  End self-consistency iteration #     6       :  max(cpu_time)    wall_clock(cpu1)
  | Time for this iteration                    :        2.068 s           2.067 s
  | Charge density update                      :        0.650 s           0.649 s
  | Density mixing                             :        0.011 s           0.011 s
  | Hartree multipole update                   :        0.005 s           0.004 s
  | Hartree multipole summation                :        0.364 s           0.364 s
  | Integration                                :        0.980 s           0.980 s
  | Solution of K.-S. eqns.                    :        0.057 s           0.057 s
  | Total energy evaluation                    :        0.000 s           0.001 s
------------------------------------------------------------

------------------------------------------------------------
          Begin self-consistency iteration #    7

  Date     :  20150727, Time     :  115734.342
------------------------------------------------------------
  Evaluating new KS density.
  Integration grid: deviation in total charge (<rho> - N_e) =   4.362732E-12
  Pulay mixing of updated and previous charge densities.

  Evaluating partitioned Hartree potential by multipole expansion.
  | Analytical far-field extrapolation by fixed multipoles:
  | Hartree multipole sum: apparent total charge =  -0.373894E-05
  Summing up the Hartree potential.
  Time summed over all CPUs for potential: real work        2.891 s, elapsed        2.900 s
  | RMS charge density error from multipole expansion :   0.183207E-01

  Integrating Hamiltonian matrix: batch-based integration.
  Time summed over all CPUs for integration: real work        7.654 s, elapsed        7.810 s

  Updating Kohn-Sham eigenvalues, eigenvectors, occupation numbers, and Fermi level.
  Solving generalized eigenproblem
  Updating Kohn-Sham eigenvalues and eigenfunctions.
  Solving real generalised eigenvalue problem by standard LAPACK (fast)
  Determining occupation numbers for Kohn-Sham eigenstates.
  | Chemical potential (Fermi level) in eV                 : -.18556327E+01
  | Error in electron count due to remaining E_F inaccuracy: 0.00000000E+00
  | Maximum occupation number of highest empty state:  0.00E+00

  Highest occupied state (VBM) at     -1.85563273 eV
  | Occupation number:      1.00000000

  Lowest unoccupied state (CBM) at    -1.85563273 eV
  | Occupation number:      1.00000000

  Overall HOMO-LUMO gap:      0.00000000 eV.

  Total energy components:
  | Sum of eigenvalues            :        -210.11383327 Ha       -5717.48830599 eV
  | XC energy correction          :         -46.90228393 Ha       -1276.27608185 eV
  | XC potential correction       :          59.95875070 Ha        1631.56061935 eV
  | Free-atom electrostatic energy:        -178.41896118 Ha       -4855.02695478 eV
  | Hartree energy correction     :          -7.80361453 Ha        -212.34715553 eV
  | van der Waals energy corr.    :           0.00000000 Ha           0.00000000 eV
  | Entropy correction            :          -0.00010367 Ha          -0.00282095 eV
  | ---------------------------
  | Total energy                  :        -383.27994222 Ha      -10429.57787881 eV
  | Total energy, T -> 0          :        -383.28004589 Ha      -10429.58069975 eV  <-- do not rely on this value for anything but (periodic) metals
  | Electronic free energy        :        -383.28014955 Ha      -10429.58352070 eV

  Derived energy quantities:
  | Kinetic energy                :         382.43080739 Ha       10406.47174454 eV
  | Electrostatic energy          :        -718.80846568 Ha      -19559.77354150 eV
  | Energy correction for multipole
  | error in Hartree potential    :          -0.00742024 Ha          -0.20191501 eV
  | Sum of eigenvalues per atom                           :        -357.34301912 eV
  | Total energy (T->0) per atom                          :        -651.84879373 eV  <-- do not rely on this value for anything but (periodic) metals
  | Electronic free energy per atom                       :        -651.84897004 eV

  Self-consistency convergence accuracy:
  | Change of charge density      : 0.6602E-02
  | Change of sum of eigenvalues  : -.1181E+01 eV
  | Change of total energy        : 0.8709E-03 eV

  End self-consistency iteration #     7       :  max(cpu_time)    wall_clock(cpu1)
  | Time for this iteration                    :        2.067 s           2.066 s
  | Charge density update                      :        0.650 s           0.650 s
  | Density mixing                             :        0.013 s           0.013 s
  | Hartree multipole update                   :        0.005 s           0.005 s
  | Hartree multipole summation                :        0.363 s           0.363 s
  | Integration                                :        0.979 s           0.978 s
  | Solution of K.-S. eqns.                    :        0.056 s           0.057 s
  | Total energy evaluation                    :        0.001 s           0.000 s
------------------------------------------------------------

------------------------------------------------------------
          Begin self-consistency iteration #    8

  Date     :  20150727, Time     :  115736.409
------------------------------------------------------------
  Evaluating new KS density.
  Integration grid: deviation in total charge (<rho> - N_e) =  -7.105427E-15
  Pulay mixing of updated and previous charge densities.

  Evaluating partitioned Hartree potential by multipole expansion.
  | Analytical far-field extrapolation by fixed multipoles:
  | Hartree multipole sum: apparent total charge =  -0.367452E-05
  Summing up the Hartree potential.
  Time summed over all CPUs for potential: real work        2.892 s, elapsed        2.901 s
  | RMS charge density error from multipole expansion :   0.183248E-01

  Integrating Hamiltonian matrix: batch-based integration.
  Time summed over all CPUs for integration: real work        7.655 s, elapsed        7.821 s

  Updating Kohn-Sham eigenvalues, eigenvectors, occupation numbers, and Fermi level.
  Solving generalized eigenproblem
  Updating Kohn-Sham eigenvalues and eigenfunctions.
  Solving real generalised eigenvalue problem by standard LAPACK (fast)
  Determining occupation numbers for Kohn-Sham eigenstates.
  | Chemical potential (Fermi level) in eV                 : -.18649073E+01
  | Error in electron count due to remaining E_F inaccuracy: -.41758597E-10
  | Maximum occupation number of highest empty state:  0.00E+00

  Highest occupied state (VBM) at     -6.75202413 eV
  | Occupation number:      2.00000000

  Lowest unoccupied state (CBM) at    -1.86490725 eV
  | Occupation number:      1.00000000

  Overall HOMO-LUMO gap:      4.88711688 eV.

  Total energy components:
  | Sum of eigenvalues            :        -210.15966864 Ha       -5718.73554973 eV
  | XC energy correction          :         -46.89707429 Ha       -1276.13432055 eV
  | XC potential correction       :          59.95182292 Ha        1631.37210500 eV
  | Free-atom electrostatic energy:        -178.41896118 Ha       -4855.02695478 eV
  | Hartree energy correction     :          -7.75605366 Ha        -211.05295833 eV
  | van der Waals energy corr.    :           0.00000000 Ha           0.00000000 eV
  | Entropy correction            :          -0.00010367 Ha          -0.00282095 eV
  | ---------------------------
  | Total energy                  :        -383.27993485 Ha      -10429.57767839 eV
  | Total energy, T -> 0          :        -383.28003852 Ha      -10429.58049934 eV  <-- do not rely on this value for anything but (periodic) metals
  | Electronic free energy        :        -383.28014219 Ha      -10429.58332028 eV

  Derived energy quantities:
  | Kinetic energy                :         382.44893555 Ha       10406.96503674 eV
  | Electrostatic energy          :        -718.83179610 Ha      -19560.40839459 eV
  | Energy correction for multipole
  | error in Hartree potential    :          -0.00752265 Ha          -0.20470171 eV
  | Sum of eigenvalues per atom                           :        -357.42097186 eV
  | Total energy (T->0) per atom                          :        -651.84878121 eV  <-- do not rely on this value for anything but (periodic) metals
  | Electronic free energy per atom                       :        -651.84895752 eV

  Self-consistency convergence accuracy:
  | Change of charge density      : 0.3472E-02
  | Change of sum of eigenvalues  : -.1247E+01 eV
  | Change of total energy        : 0.2004E-03 eV

  End self-consistency iteration #     8       :  max(cpu_time)    wall_clock(cpu1)
  | Time for this iteration                    :        2.069 s           2.069 s
  | Charge density update                      :        0.649 s           0.649 s
  | Density mixing                             :        0.014 s           0.014 s
  | Hartree multipole update                   :        0.005 s           0.005 s
  | Hartree multipole summation                :        0.364 s           0.363 s
  | Integration                                :        0.979 s           0.980 s
  | Solution of K.-S. eqns.                    :        0.058 s           0.057 s
  | Total energy evaluation                    :        0.000 s           0.001 s
------------------------------------------------------------

------------------------------------------------------------
          Begin self-consistency iteration #    9

  Date     :  20150727, Time     :  115738.478
------------------------------------------------------------
  Evaluating new KS density.
  Integration grid: deviation in total charge (<rho> - N_e) =  -4.173728E-11
  Pulay mixing of updated and previous charge densities.

  Evaluating partitioned Hartree potential by multipole expansion.
  | Analytical far-field extrapolation by fixed multipoles:
  | Hartree multipole sum: apparent total charge =  -0.366017E-05
  Summing up the Hartree potential.
  Time summed over all CPUs for potential: real work        2.892 s, elapsed        2.902 s
  | RMS charge density error from multipole expansion :   0.183234E-01

  Integrating Hamiltonian matrix: batch-based integration.
  Time summed over all CPUs for integration: real work        7.657 s, elapsed        7.805 s

  Updating Kohn-Sham eigenvalues, eigenvectors, occupation numbers, and Fermi level.
  Solving generalized eigenproblem
  Updating Kohn-Sham eigenvalues and eigenfunctions.
  Solving real generalised eigenvalue problem by standard LAPACK (fast)
  Determining occupation numbers for Kohn-Sham eigenstates.
  | Chemical potential (Fermi level) in eV                 : -.18648666E+01
  | Error in electron count due to remaining E_F inaccuracy: -.43463899E-10
  | Maximum occupation number of highest empty state:  0.00E+00

  Highest occupied state (VBM) at     -6.74984086 eV
  | Occupation number:      2.00000000

  Lowest unoccupied state (CBM) at    -1.86486661 eV
  | Occupation number:      1.00000000

  Overall HOMO-LUMO gap:      4.88497425 eV.

  Total energy components:
  | Sum of eigenvalues            :        -210.15901139 Ha       -5718.71766517 eV
  | XC energy correction          :         -46.89741927 Ha       -1276.14370783 eV
  | XC potential correction       :          59.95227762 Ha        1631.38447799 eV
  | Free-atom electrostatic energy:        -178.41896118 Ha       -4855.02695478 eV
  | Hartree energy correction     :          -7.75681949 Ha        -211.07379756 eV
[...]
   Van der Waals               : 0.789447E-03 0.281960E-02 -.109664E-02
   ----------------------------------------------------------------
   Total forces(   7)            : 0.260869E+00 0.531965E+00 0.281218E+00
  atom #    8
   Hellmann-Feynman + Multipole  : -.652507E+01 -.686258E+01 0.913053E+01
   Pulay + GGA                   : 0.690670E+01 0.625625E+01 -.622574E+01
   Van der Waals               : 0.446435E-03 0.462414E-02 0.443496E-02
   ----------------------------------------------------------------
   Total forces(   8)            : 0.382078E+00 -.601704E+00 0.290923E+01
  atom #    9
   Hellmann-Feynman + Multipole  : -.745284E-01 -.571757E-01 -.919347E-01
   Pulay + GGA                   : 0.837073E-01 0.128447E+00 0.544223E-01
   Van der Waals               : 0.740299E-03 0.232652E-02 0.115488E-03
   ----------------------------------------------------------------
   Total forces(   9)            : 0.991916E-02 0.735974E-01 -.373969E-01
  atom #   10
   Hellmann-Feynman + Multipole  : -.290852E+00 0.433120E+00 -.268020E+01
   Pulay + GGA                   : -.338878E-01 0.243105E-01 -.136291E+00
   Van der Waals               : 0.145051E-02 0.695680E-03 0.280999E-02
   ----------------------------------------------------------------
   Total forces(  10)            : -.323289E+00 0.458126E+00 -.281368E+01
  atom #   11
   Hellmann-Feynman + Multipole  : -.450536E+01 0.209962E+01 -.973199E+01
   Pulay + GGA                   : 0.606763E+01 -.212995E+01 0.106736E+02
   Van der Waals               : -.151209E-02 0.324917E-02 0.154889E-02
   ----------------------------------------------------------------
   Total forces(  11)            : 0.156076E+01 -.270757E-01 0.943205E+00
  atom #   12
   Hellmann-Feynman + Multipole  : -.130034E+00 -.445787E+00 -.765832E+00
   Pulay + GGA                   : 0.626108E-02 0.102501E+00 0.118713E+00
   Van der Waals               : -.100341E-03 0.291199E-02 0.230081E-02
   ----------------------------------------------------------------
   Total forces(  12)            : -.123873E+00 -.340374E+00 -.644818E+00
  atom #   13
   Hellmann-Feynman + Multipole  : -.127339E+01 0.687134E+00 -.261849E+00
   Pulay + GGA                   : 0.123679E+00 -.766510E-01 0.135109E-01
   Van der Waals               : -.205776E-02 0.843161E-03 0.114111E-02
   ----------------------------------------------------------------
   Total forces(  13)            : -.115176E+01 0.611326E+00 -.247197E+00
  atom #   14
   Hellmann-Feynman + Multipole  : 0.133433E+01 -.158932E+02 0.169675E+01
   Pulay + GGA                   : -.124940E+00 0.157768E+02 -.330752E+01
   Van der Waals               : 0.246190E-02 -.719549E-02 -.472045E-02
   ----------------------------------------------------------------
   Total forces(  14)            : 0.121185E+01 -.123619E+00 -.161550E+01
  atom #   15
   Hellmann-Feynman + Multipole  : -.283447E+00 0.631070E+00 0.235254E+00
   Pulay + GGA                   : -.746785E-01 0.975398E-01 0.937047E-01
   Van der Waals               : 0.972676E-03 -.198623E-02 -.170106E-02
   ----------------------------------------------------------------
   Total forces(  15)            : -.357153E+00 0.726623E+00 0.327257E+00
  atom #   16
   Hellmann-Feynman + Multipole  : -.889322E+00 -.740981E+00 0.142611E+01
   Pulay + GGA                   : 0.850174E-01 0.729901E-01 -.127492E+00
   Van der Waals               : 0.159973E-02 -.602686E-02 -.165695E-02
   ----------------------------------------------------------------
   Total forces(  16)            : -.802704E+00 -.674018E+00 0.129696E+01
  Timings for vdw_correction_hirshfeld (Tkatchenko-Scheffler 2009):
  | CPU time:        5.482 s, Wall clock time:        5.482 s.
  Removing unitary transformations (pure translations, rotations) from forces on atoms.
  Atomic forces before filtering:
  | Net force on center of mass :  0.691512E-02 0.566652E-02 -.684075E-02 eV/A
  | Net torque on center of mass:  0.541933E-02 0.125456E-01 -.939567E-02 eV
  Atomic forces after filtering:
  | Net force on center of mass :  -.356812E-15 -.267609E-15 -.356812E-15 eV/A
  | Net torque on center of mass:  -.151054E-14 -.132172E-14 -.226580E-14 eV
 
  Energy and forces in a compact form:
  | Total energy uncorrected      :         -0.104296594871004E+05 eV
  | Total energy corrected        :         -0.104296623080483E+05 eV  <-- do not rely on this value for anything but (periodic) metals
  | Electronic free energy        :         -0.104296651289962E+05 eV
  Total atomic forces (unitary forces cleaned) [eV/Ang]:
  |   1         -0.105752068460483E+01          0.117467195927478E+01         -0.117761194189378E+01
  |   2          0.436253982300370E+00         -0.102047449442160E+01          0.337320969093144E+00
  |   3          0.360866851518946E+00         -0.135452710007650E+00         -0.511515180627681E-01
  |   4          0.134334896477551E-01         -0.106085821843954E+00          0.422565691819317E+00
  |   5         -0.281284260082340E+00         -0.152856757517030E+01         -0.957639649902289E+00
  |   6         -0.133320355636023E+00          0.984631693997151E+00          0.102335790062948E+01
  |   7          0.260433155482426E+00          0.531564241565763E+00          0.281586262049423E+00
  |   8          0.381814938942783E+00         -0.602284006987995E+00          0.290945178336750E+01
  |   9          0.951088627573497E-02          0.730907951584733E-01         -0.371465390382803E-01
  |  10         -0.323435988639281E+00          0.457480451358665E+00         -0.281348123887086E+01
  |  11          0.156053108768599E+01         -0.271815116666289E-01          0.944032128509712E+00
  |  12         -0.124288450666661E+00         -0.340428505193387E+00         -0.644013062444367E+00
  |  13         -0.115193969058944E+01          0.611323627909315E+00         -0.246217819538488E+00
  |  14          0.121086484638995E+01         -0.124038751943891E+00         -0.161540090677045E+01
  |  15         -0.358287429420891E+00          0.726174547601118E+00          0.327247266939715E+00
  |  16         -0.803632378604494E+00         -0.674423939629853E+00          0.129710067411300E+01
 
  ------------------------------------ 
  Start decomposition of the XC Energy 
  ------------------------------------ 
  Hartree-Fock part   :          0.000000000 Ha              0.000000000 eV
  ------------------------------------ 
  X Energy            :        -45.236920290 Ha          -1230.959231611 eV
  C Energy GGA        :         -1.660801964 Ha            -45.192720823 eV
  Total XC Energy     :        -46.897722254 Ha          -1276.151952433 eV
  LDA X and C from self-consistent density 
  X Energy LDA        :        -40.780560703 Ha          -1109.695517423 eV
  C Energy LDA        :         -3.339680131 Ha            -90.877320163 eV
  ------------------------------------ 
  End decomposition of the XC Energy 
  ------------------------------------ 
  Performing Hirshfeld analysis of fragment charges and moments.
  ----------------------------------------------------------------------
  | Atom     1: O
  |   Hirshfeld charge        :     -0.15754536
  |   Free atom volume        :     23.95238533
  |   Hirshfeld volume        :     21.27349408
  |   Hirshfeld dipole vector :      0.00476744       0.02603101       0.02155680
  |   Hirshfeld dipole moment :      0.03413265
  |   Hirshfeld second moments:      0.08199428      -0.00817219      -0.00756702
  |                                 -0.00817219       0.04789820      -0.02378610
  |                                 -0.00756702      -0.02378610       0.06355001
  ----------------------------------------------------------------------
  | Atom     2: H
  |   Hirshfeld charge        :      0.11287188
  |   Free atom volume        :     10.44207651
  |   Hirshfeld volume        :      9.19998172
  |   Hirshfeld dipole vector :     -0.00893915       0.00917138      -0.00549636
  |   Hirshfeld dipole moment :      0.01393673
  |   Hirshfeld second moments:      0.05395971       0.01781369      -0.00374908
  |                                  0.01781369       0.02948239       0.01219725
  |                                 -0.00374908       0.01219725       0.07080543
  ----------------------------------------------------------------------
  | Atom     3: H
  |   Hirshfeld charge        :      0.09918112
  |   Free atom volume        :     10.44207651
  |   Hirshfeld volume        :      9.42737762
  |   Hirshfeld dipole vector :      0.01602126      -0.00058437       0.00256236
  |   Hirshfeld dipole moment :      0.01623539
  |   Hirshfeld second moments:      0.02275099      -0.02013291      -0.00347921
  |                                 -0.02013291       0.05568568       0.00356978
  |                                 -0.00347921       0.00356978       0.06138418
  ----------------------------------------------------------------------
  | Atom     4: H
  |   Hirshfeld charge        :      0.10637512
  |   Free atom volume        :     10.44207651
  |   Hirshfeld volume        :      8.94314611
  |   Hirshfeld dipole vector :     -0.01871095      -0.00303876       0.01824853
  |   Hirshfeld dipole moment :      0.02631240
  |   Hirshfeld second moments:      0.07440365       0.00629773       0.00785510
  |                                  0.00629773       0.07193172       0.00399298
  |                                  0.00785510       0.00399298       0.02196781
  ----------------------------------------------------------------------
  | Atom     5: O
  |   Hirshfeld charge        :     -0.21922671
  |   Free atom volume        :     23.95238533
  |   Hirshfeld volume        :     21.80849799
  |   Hirshfeld dipole vector :     -0.03004784       0.02241212      -0.00571672
  |   Hirshfeld dipole moment :      0.03791908
  |   Hirshfeld second moments:      0.02871675       0.04929815      -0.01290853
  |                                  0.04929815       0.04154447       0.01869436
  |                                 -0.01290853       0.01869436       0.06145332
  ----------------------------------------------------------------------
  | Atom     6: H
  |   Hirshfeld charge        :      0.12432231
  |   Free atom volume        :     10.44207651
  |   Hirshfeld volume        :     10.10601149
  |   Hirshfeld dipole vector :      0.00648202       0.05526658       0.04461710
  |   Hirshfeld dipole moment :      0.07132389
  |   Hirshfeld second moments:      0.03315179       0.00471620      -0.01152294
  |                                  0.00471620       0.03176511      -0.00446386
  |                                 -0.01152294      -0.00446386       0.06764118
  ----------------------------------------------------------------------
  | Atom     7: H
  |   Hirshfeld charge        :      0.14213609
  |   Free atom volume        :     10.44207651
  |   Hirshfeld volume        :      9.05595761
  |   Hirshfeld dipole vector :     -0.07480632      -0.04798426       0.01528527
  |   Hirshfeld dipole moment :      0.09017823
  |   Hirshfeld second moments:      0.05179432       0.01432799       0.00023776
  |                                  0.01432799       0.07170721       0.01259438
  |                                  0.00023776       0.01259438       0.08066267
  ----------------------------------------------------------------------
  | Atom     8: O
  |   Hirshfeld charge        :     -0.20879925
  |   Free atom volume        :     23.95238533
  |   Hirshfeld volume        :     22.36675351
  |   Hirshfeld dipole vector :      0.02987919      -0.00981001      -0.01931901
  |   Hirshfeld dipole moment :      0.03690836
  |   Hirshfeld second moments:     -0.00886903       0.00201727       0.03551497
  |                                  0.00201727       0.05354628       0.00583407
  |                                  0.03551497       0.00583407       0.06404243
  ----------------------------------------------------------------------
  | Atom     9: H
  |   Hirshfeld charge        :      0.08200496
  |   Free atom volume        :     10.44207651
  |   Hirshfeld volume        :     12.29562734
  |   Hirshfeld dipole vector :      0.00213854       0.01108587       0.02489982
  |   Hirshfeld dipole moment :      0.02733992
  |   Hirshfeld second moments:     -0.03852959      -0.03000212       0.00514399
  |                                 -0.03000212      -0.01339697       0.00128230
  |                                  0.00514399       0.00128230       0.04054324
  ----------------------------------------------------------------------
  | Atom    10: H
  |   Hirshfeld charge        :      0.11962536
  |   Free atom volume        :     10.44207651
  |   Hirshfeld volume        :     10.71230602
  |   Hirshfeld dipole vector :     -0.01617117      -0.00615913      -0.07677536
  |   Hirshfeld dipole moment :      0.07870132
  |   Hirshfeld second moments:      0.02387271      -0.00098026       0.01692225
  |                                 -0.00098026       0.05039342       0.00615472
  |                                  0.01692225       0.00615472       0.04093001
  ----------------------------------------------------------------------
  | Atom    11: O
  |   Hirshfeld charge        :     -0.23029020
  |   Free atom volume        :     23.95238533
  |   Hirshfeld volume        :     23.39209638
  |   Hirshfeld dipole vector :     -0.01286573      -0.03621591       0.03077830
  |   Hirshfeld dipole moment :      0.04923843
  |   Hirshfeld second moments:      0.04134875      -0.01558743       0.00625552
  |                                 -0.01558743       0.00706664       0.04708244
  |                                  0.00625552       0.04708244      -0.02456526
  ----------------------------------------------------------------------
  | Atom    12: H
  |   Hirshfeld charge        :      0.06207817
  |   Free atom volume        :     10.44207651
  |   Hirshfeld volume        :     13.87482774
  |   Hirshfeld dipole vector :     -0.00257572      -0.00565869       0.02080156
  |   Hirshfeld dipole moment :      0.02171082
  |   Hirshfeld second moments:      0.01396201       0.00186706      -0.00555451
  |                                  0.00186706      -0.05334115      -0.00264499
  |                                 -0.00555451      -0.00264499      -0.06007725
  ----------------------------------------------------------------------
  | Atom    13: H
  |   Hirshfeld charge        :      0.10660815
  |   Free atom volume        :     10.44207651
  |   Hirshfeld volume        :     11.35012838
  |   Hirshfeld dipole vector :      0.04885874      -0.05114435      -0.00744110
  |   Hirshfeld dipole moment :      0.07112166
  |   Hirshfeld second moments:      0.03152063      -0.00209116      -0.00707299
  |                                 -0.00209116       0.02716208       0.02543932
  |                                 -0.00707299       0.02543932       0.00914032
  ----------------------------------------------------------------------
  | Atom    14: O
  |   Hirshfeld charge        :     -0.32705777
  |   Free atom volume        :     23.95238533
  |   Hirshfeld volume        :     24.20031721
  |   Hirshfeld dipole vector :     -0.01382850       0.06765997      -0.00332419
  |   Hirshfeld dipole moment :      0.06913862
  |   Hirshfeld second moments:     -0.05903633      -0.01733104      -0.06721103
  |                                 -0.01733104      -0.03100752       0.00719256
  |                                 -0.06721103       0.00719256      -0.00927774
  ----------------------------------------------------------------------
  | Atom    15: H
  |   Hirshfeld charge        :      0.11647700
  |   Free atom volume        :     10.44207651
  |   Hirshfeld volume        :      8.58607446
  |   Hirshfeld dipole vector :     -0.06304656       0.07971213       0.06627606
  |   Hirshfeld dipole moment :      0.12133181
  |   Hirshfeld second moments:      0.06596359      -0.00148427      -0.02568927
  |                                 -0.00148427       0.06845275      -0.00102155
  |                                 -0.02568927      -0.00102155       0.08149034
  ----------------------------------------------------------------------
  | Atom    16: H
  |   Hirshfeld charge        :      0.07123835
  |   Free atom volume        :     10.44207651
  |   Hirshfeld volume        :     11.84735655
  |   Hirshfeld dipole vector :      0.01039918       0.03679753      -0.04165346
  |   Hirshfeld dipole moment :      0.05654389
  |   Hirshfeld second moments:     -0.02997212      -0.01052854      -0.00897228
  |                                 -0.01052854       0.02797697       0.02970918
  |                                 -0.00897228       0.02970918       0.00980573
  ----------------------------------------------------------------------


------------------------------------------------------------------------------
  Final output of selected total energy values:

  The following output summarizes some interesting total energy values
  at the end of a run (AFTER all relaxation, molecular dynamics, etc.).

  | Total energy of the DFT / Hartree-Fock s.c.f. calculation      :         -10429.659487100 eV
  | Final zero-broadening corrected energy (caution - metals only) :         -10429.662308048 eV
  | For reference only, the value of 1 Hartree used in FHI-aims is :             27.211384500 eV

  Before relying on these values, please be sure to understand exactly which
  total energy value is referred to by a given number. Different objects may
  all carry the same name 'total energy'. Definitions:

  Total energy of the DFT / Hartree-Fock s.c.f. calculation:
  | Note that this energy does not include ANY quantities calculated after the
  | s.c.f. cycle, in particular not ANY RPA, MP2, etc. many-body perturbation terms.

  Final zero-broadening corrected energy:
  | For metallic systems only, a broadening of the occupation numbers at the Fermi
  | level can be extrapolated back to zero broadening by an electron-gas inspired
  | formula. For all systems that are not real metals, this value can be
  | meaningless and should be avoided.

------------------------------------------------------------------------------

------------------------------------------------------------
          Leaving FHI-aims.
          Date     :  20150727, Time     :  115801.301

          Computational steps:
          | Number of self-consistency cycles          :           17

          Detailed time accounting                     :  max(cpu_time)    wall_clock(cpu1)
          | Total time                                 :       41.986 s          42.005 s
          | Preparation time                           :        0.171 s           0.498 s
          | Grid partitioning                          :        0.158 s           0.157 s
          | Preloading free-atom quantities on grid    :        0.013 s           0.013 s
          | Free-atom superposition energy             :        0.073 s           0.073 s
          | Total time for integrations                :       18.156 s          18.155 s
          | Total time for solution of K.-S. equations :        1.181 s           1.180 s
          | Total time for density & force components  :       13.869 s          13.866 s
          | Total time for mixing                      :        0.235 s           0.233 s
          | Total time for Hartree multipole update    :        0.083 s           0.085 s
          | Total time for Hartree multipole sum       :        7.390 s           7.389 s
          | Total time for total energy evaluation     :        0.004 s           0.006 s
          | Total time for scaled ZORA corrections     :        0.000 s           0.000 s
          | Total time for TS (2009) vdW correction    :        0.058 s           0.058 s

          Have a nice day.
------------------------------------------------------------
