  MPI-parallelism will be employed.
------------------------------------------------------------
          Invoking FHI-aims ...
          Version 081213
          Compiled on 2013/08/29 at 17:41:06 on host generoso.

          When using FHI-aims, please cite the following reference:

          Volker Blum, Ralf Gehrke, Felix Hanke, Paula Havu,
          Ville Havu, Xinguo Ren, Karsten Reuter, and Matthias Scheffler,
          'Ab Initio Molecular Simulations with Numeric Atom-Centered Orbitals: FHI-aims',
          Computer Physics Communications 180, 2175-2196 (2009)

          For any questions about FHI-aims, please visit the aimsclub website
          with its forums and wiki. Contributions to both the forums and the
          wiki are warmly encouraged - they are for you, and everyone is welcome there.

------------------------------------------------------------

  Date     :  20150727, Time     :  122419.643
  Time zero on CPU 1             :   0.499910000000000E-01  s.
  Internal wall clock time zero  :           207231859.643  s.

  Using        8 parallel tasks.
  Task        0 on host gen59 reporting.
  Task        1 on host gen59 reporting.
  Task        2 on host gen59 reporting.
  Task        3 on host gen59 reporting.
  Task        4 on host gen59 reporting.
  Task        5 on host gen59 reporting.
  Task        6 on host gen59 reporting.
  Task        7 on host gen59 reporting.

  Performing system and environment tests:
  | Environment variable OMP_NUM_THREADS correctly set to 1.
  | Checking for scalapack...
  | No scalapack compiled in.

  Obtaining array dimensions for all initial allocations:
  
  -----------------------------------------------------------------------
  Parsing control.in (first pass over file, find array dimensions only).
  The contents of control.in will be repeated verbatim below
  unless switched off by setting 'verbatim_writeout .false.' .
  in the first line of control.in .
  -----------------------------------------------------------------------
  
  #########################################################################################
  #
  #  Volker Blum, FHI 2008 : Test run input file control.in
  #
  #########################################################################################
  #
  #  Physical model
  #
    xc                 rpbe
    spin               none
    relativistic       atomic_zora scalar
    charge             0.
   vdw_correction_hirshfeld
  #
  #  SCF convergence
  #
    occupation_type    gaussian 0.01
    mixer              pulay
      n_max_pulay        10
      charge_mix_param   0.1
    sc_accuracy_rho    5E-5
    sc_accuracy_eev    5E-3
    sc_accuracy_etot   5E-6
    sc_iter_limit      3000
  #
  #  Eigenvalue solver
  #
    KS_method          lapack
      empty_states       8
      basis_threshold    0.e-5
  #
  #  Efficiency
  #
  #   all previous settings are now default, except stratmann still
  #   undecided. Continue to handle stratmann with care, if at all.
  #
  #  partition_type stratmann
    partition_type rho_r2
  #  hartree_partition_type stratmann
  #
  #  Oprions for large clusters (100's of atoms: memory saving / better scaling)
  #
  # for periodic systems:
  #
    density_update_method orbital
    packed_matrix_format none
  #  k_grid 6 6 6
  #  output k_eigenvalue 1
  #  distributed_spline_storage .true.
  #
  #  Relaxation
  #
  #  relax_geometry   bfgs 5.e-3
    sc_accuracy_forces 5.E-4
    final_forces_cleaned .true.
  #
  #  Output options
  #
  #  output mulliken
    output Hirshfeld
  #  output dipole
  
  #harmonic_length_scale 0.001
  
  ################################################################################
  #
  #  FHI-aims code project
  #  VB, Fritz-Haber Institut, 2007
  #
  #  Suggested "safe" defaults for H atom (to be pasted into control.in file)
  #  Basis constructed for a non-relativistic H2 molecule using the
  #  PW-LDA functional.
  #
  ################################################################################
    species        H
  #     global species definitions
      nucleus             1
      cut_pot             4.0  2.0  1.0
      cut_free_atom       finite 8.0
      logarithmic         0.00010000 100.00  1.0123
      basis_dep_cutoff    1d-4  # 1d-4 is safe default - please check 5d-4 if you wish!
      radial_base         24 7.0
      radial_multiplier   2
      angular_grids       specified
        division   0.2783  110
        division   0.3822  194
        division   0.5626  302
  #      division   0.5922  434
  #      division   0.6227  590
  #      division   0.7206  770
        outer_grid  302
      l_hartree           4
  ################################################################################
  #
  #  Definition of "minimal" basis
  #
  ################################################################################
  #     valence basis states
      valence      1  s   1.
  #     ion occupancy
      ion_occ      1  s   0.5
  ################################################################################
  #
  #  Suggested additional basis functions. For production calculations,
  #  uncomment them one after another (the most important basis functions are
  #  listed first).
  #
  ################################################################################
  #  "First tier" - improvements: -1014.90 meV to -62.69 meV
       hydro 2 s 2.1
       hydro 2 p 3.5
  #  "Second tier" - improvements: -12.89 meV to -1.83 meV
       hydro 1 s 0.85
       hydro 2 p 3.7
       hydro 2 s 1.2
       hydro 3 d 7
  #  "Third tier" - improvements: -0.25 meV to -0.12 meV
  #     hydro 4 f 11.2
  #     hydro 3 p 4.8
  #     hydro 4 d 9
  #     hydro 3 s 3.2
  
  ################################################################################
  #
  #  FHI-aims code project
  #  VB, Fritz-Haber Institut, 2007
  #
  #  Suggested "safe" defaults for O atom (to be pasted into control.in file)
  #  All values have been tested for a non-relativistic, non-spinpolarized O2
  #  molecule using the PW-LDA functional. Validity for PBE is expected.
  #
  #  Constructed for dimers: 1.0 A, 1.208 A, 1.5 A, 2.0 A, 3.0 A
  #
  ################################################################################
    species        O
  #     global species definitions
      nucleus             8
      mass                15.9994
      l_hartree           4
      cut_pot             4.0  2.0  1.0
      cut_free_atom       finite 8.0
      basis_dep_cutoff    1d-4  # 1d-4 is safe default - please check 5d-4 if you wish!
      logarithmic         0.00010000 100.00  1.0123
      radial_base         36 7.0
      radial_multiplier   2
       angular_grids specified
        division   0.4087  110
        division   0.5181  194
        division   0.6184  302
  #      division   0.7315  434
  #      division   0.7934  590
  #      division   0.9656  770
  #      division   1.4041  974
  #      outer_grid 974
        outer_grid 302
  ################################################################################
  #
  #  Definition of "minimal" basis
  #
  ################################################################################
  #     valence basis states
      valence      2  s   2.
      valence      2  p   4.
  #     ion occupancy
      ion_occ      2  s   1.
      ion_occ      2  p   3.
  ################################################################################
  #
  #  Suggested additional basis functions. For production calculations,
  #  uncomment them one after another (the most important basis functions are
  #  listed first).
  #
  ################################################################################
  #  "First tier" - improvements: -699.05 meV to -159.38 meV
       hydro 2 p 1.8
       hydro 3 d 7.6
       hydro 3 s 6.4
  #  "Second tier" - improvements: -49.91 meV to -5.39 meV
       hydro 4 f 11.6
       hydro 3 p 6.2
       hydro 3 d 5.6
       hydro 5 g 17.6
       hydro 1 s 0.75
  #  "Third tier" - improvements: -2.83 meV to -0.50 meV
  #     ionic 2 p auto
  #     hydro 4 f 10.8
  #     hydro 4 d 4.7
  #     hydro 2 s 6.8
  #  "Fourth tier" - improvements: -0.40 meV to -0.12 meV
  #     hydro 3 p 5
  #     hydro 3 s 3.3
  #     hydro 5 g 15.6
  #     hydro 4 f 17.6
  #     hydro 4 d 14
  # Further basis functions - -0.08 meV and below
  #     hydro 3 s 2.1
  #     hydro 4 d 11.6
  #     hydro 3 p 16
  #     hydro 2 s 17.2
  
  
  -----------------------------------------------------------------------
  Completed first pass over input file control.in .
  -----------------------------------------------------------------------
  
  
  -----------------------------------------------------------------------
  Parsing geometry.in (first pass over file, find array dimensions only).
  The contents of geometry.in will be repeated verbatim below
  unless switched off by setting 'verbatim_writeout .false.' .
  in the first line of geometry.in .
  -----------------------------------------------------------------------
  
  atom      -4.053030000      0.065001000     -1.525160000  O
  atom      -4.566710000      0.974813000     -1.912820000  H
  atom      -3.067820000      0.330172000     -1.477310000  H
  atom      -4.370360000     -0.049164000     -0.572274000  H
  atom      -4.581760000     -0.256435000      0.939478000  O
  atom      -4.349860000      0.471090000      1.504340000  H
  atom      -5.393870000     -0.726611000      1.228070000  H
  atom      -3.818880000      2.024990000      2.187990000  O
  atom      -3.690880000      1.961360000      3.202150000  H
  atom      -4.546490000      2.751300000      2.045370000  H
  atom      -1.975360000      2.858040000      0.453140000  O
  atom      -1.223550000      3.375850000      0.786238000  H
  atom      -2.537520000      2.567960000      1.156120000  H
  atom      -4.066610000      4.258280000     -0.900064000  O
  atom      -3.224110000      3.876870000     -0.569443000  H
  atom      -3.737450000      5.116530000     -1.322720000  H
  atom      -5.628340000      3.730740000      1.385610000  O
  atom      -6.090650000      4.418470000      1.860350000  H
  atom      -5.158540000      4.200260000      0.615875000  H
  
  -----------------------------------------------------------------------
  Completed first pass over input file geometry.in .
  -----------------------------------------------------------------------
  
 
  Basic array size parameters: 
  | Number of species                 :        2
  | Number of atoms                   :       19
  | Max. basis fn. angular momentum   :        4
  | Max. atomic/ionic basis occupied n:        2
  | Max. number of basis fn. types    :        2
  | Max. radial fns per species/type  :        8
  | Max. logarithmic grid size        :     1301
  | Max. radial integration grid size :       73
  | Max. angular integration grid size:      302
  | Max. angular grid division number :        8
  | Radial grid for Hartree potential :     1301
  | Number of spin channels           :        1

------------------------------------------------------------
          Reading file control.in.
------------------------------------------------------------
  XC: Using RPBE gradient-corrected functionals.
  Spin treatment: No spin polarisation.
  Scalar relativistic treatment of kinetic energy: on-site free-atom approximation to ZORA.
  Charge =   0.000000E+00: Neutral system requested explicitly.
  Using non-empirical van der Waals correction (Hirshfeld partitioning):
  Occupation type: Gaussian broadening, width =   0.100000E-01 eV.
  Using pulay charge density mixing.
  Pulay mixing - number of memorized iterations:   10
  Charge density mixing - mixing parameter:     0.1000
  Convergence accuracy of self-consistent charge density: 0.5000E-04
  Convergence accuracy of sum of eigenvalues: 0.5000E-02
  Convergence accuracy of total energy: 0.5000E-05
  Maximum number of s.-c. iterations  :  3000
  Kohn-Sham eigenvalues and eigenfunctions calculated by lapack diagonalisation (D&C).
  Number of empty states per atom:        8
  Threshold for basis singularities: 0.0000E+00
  Partition function in integrals calculations: rho / r^2
 Using packed matrix format           0
  Convergence accuracy of forces: 0.5000E-03
  Cleaning forces before final output.
  Hirshfeld charge analysis will be performed.
 
  Reading configuration options for species H                   .
  | Found nuclear charge :   1.0000
  | Found cutoff potl. onset [A], width [A], scale factor :    4.00000    2.00000    1.00000
  | Found cutoff specification for free atom: Cutoff potential begins at    8.00000 A.
  | Found logarithmic grid data [bohr] : 0.1000E-03 0.1000E+03 0.1012E+01
  | Threshold for basis-dependent cutoff potential is   0.100000E-03
  | Found data for basic radial integration grid :    24 points, outermost radius =    7.000 A
  | Found multiplier for basic radial grid :   2
  | Found angular grid specification: user-specified.
  | Specified grid contains     4 separate shells.
  | Check grid settings after all constraints further below.
  | Found l_max for Hartree potential  :   4
  | Found free-atom valence shell :  1 s   1.000
  | No ionic wave fns used. Skipping ion_occ.
  | Found hydrogenic basis function :  2 s   2.100
  | Found hydrogenic basis function :  2 p   3.500
  | Found hydrogenic basis function :  1 s   0.850
  | Found hydrogenic basis function :  2 p   3.700
  | Found hydrogenic basis function :  2 s   1.200
  | Found hydrogenic basis function :  3 d   7.000
  Species H                   : Missing cutoff potential type.
  Defaulting to exp(1/x)/(1-x)^2 type cutoff potential.
  Species H : On-site basis accuracy parameter (for Gram-Schmidt orthonormalisation) not specified.
  Using default value basis_acc =  0.1000000E-03.
  Species H                   : Using default innermost maximum threshold i_radial=  2 for radial functions.
  Species H                   : Basic radial grid will be enhanced according to radial_multiplier =   2, to contain    49 grid points.
 
  Reading configuration options for species O                   .
  | Found nuclear charge :   8.0000
  | Found atomic mass :    15.9994000000000      amu
  | Found l_max for Hartree potential  :   4
  | Found cutoff potl. onset [A], width [A], scale factor :    4.00000    2.00000    1.00000
  | Found cutoff specification for free atom: Cutoff potential begins at    8.00000 A.
  | Threshold for basis-dependent cutoff potential is   0.100000E-03
  | Found logarithmic grid data [bohr] : 0.1000E-03 0.1000E+03 0.1012E+01
  | Found data for basic radial integration grid :    36 points, outermost radius =    7.000 A
  | Found multiplier for basic radial grid :   2
  | Found angular grid specification: user-specified.
  | Specified grid contains     4 separate shells.
  | Check grid settings after all constraints further below.
  | Found free-atom valence shell :  2 s   2.000
  | Found free-atom valence shell :  2 p   4.000
  | No ionic wave fns used. Skipping ion_occ.
  | No ionic wave fns used. Skipping ion_occ.
  | Found hydrogenic basis function :  2 p   1.800
  | Found hydrogenic basis function :  3 d   7.600
  | Found hydrogenic basis function :  3 s   6.400
  | Found hydrogenic basis function :  4 f  11.600
  | Found hydrogenic basis function :  3 p   6.200
  | Found hydrogenic basis function :  3 d   5.600
  | Found hydrogenic basis function :  5 g  17.600
  | Found hydrogenic basis function :  1 s   0.750
  Species O                   : Missing cutoff potential type.
  Defaulting to exp(1/x)/(1-x)^2 type cutoff potential.
  Species O : On-site basis accuracy parameter (for Gram-Schmidt orthonormalisation) not specified.
  Using default value basis_acc =  0.1000000E-03.
  Species O                   : Using default innermost maximum threshold i_radial=  2 for radial functions.
  Species O                   : Basic radial grid will be enhanced according to radial_multiplier =   2, to contain    73 grid points.
 
  Finished reading input file 'control.in'. Consistency checks are next.
 
  Target number of points in a grid batch is not set. Defaulting to  100
  Method for grid partitioning is not set. Defaulting to parallel hash+maxmin partitioning.
  Batch size limit is not set. Defaulting to    200
  By default, will store active basis functions for each batch.
  If in need of memory, prune_basis_once .false. can be used to disable this option.
  communication_type for Hartree potential was not specified.
  Defaulting to calc_hartree .
  Pulay mixer: Number of initial linear mixing iterations not set.
  Defaulting to    0 iterations.
  Work space size for distributed Hartree potential not set.
  Defaulting to   0.200000E+03 MB.
  Algorithm-dependent basis array size parameters:
  | n_max_pulay                         :       10
  Geometry relaxation not requested: no relaxation will be performed.
  Handling of forces: Unphysical translation and rotation will be removed from forces.
  No accuracy limit for integral partition fn. given. Defaulting to 0.1000E-14.
  No threshold value for u(r) in integrations given. Defaulting to 0.1000E-05.
  No accuracy for occupation numbers given. Defaulting to 0.1000E-07.
  No threshold value for occupation numbers given. Defaulting to 0.0000E+00.
  No accuracy for fermi level given. Defaulting to 0.1000E-19.
  Maximum # of iterations to find E_F not set. Defaulting to  200.
  Will not use alltoall communication since running on < 1024 CPUs.
  Partitioning for Hartree potential was not defined. Using partition_type for integrals.
  | Reporting present value of keyword multip_moments_threshold  :       0.10000000E-09
  | This value may affect high angular momentum components of the Hartree potential in periodic systems.
  No q(lm)/r^(l+1) cutoff set for long-range Hartree potential.
  | Using default value of  0.100000E-09 .
  | Verify using the multipole_threshold keyword.
  Defaulting to new monopole extrapolation.
  Density update method: Loop over occupied states selected for charge density update.
------------------------------------------------------------


------------------------------------------------------------
          Reading geometry description geometry.in.
------------------------------------------------------------
  Input structure read successfully.
  The structure contains       19 atoms,  and a total of         61.000 electrons.

  Input geometry:
  | No unit cell requested.
  | Atomic structure:
  |       Atom                x [A]            y [A]            z [A]
  |    1: Species O             -4.053030         0.065001        -1.525160
  |    2: Species H             -4.566710         0.974813        -1.912820
  |    3: Species H             -3.067820         0.330172        -1.477310
  |    4: Species H             -4.370360        -0.049164        -0.572274
  |    5: Species O             -4.581760        -0.256435         0.939478
  |    6: Species H             -4.349860         0.471090         1.504340
  |    7: Species H             -5.393870        -0.726611         1.228070
  |    8: Species O             -3.818880         2.024990         2.187990
  |    9: Species H             -3.690880         1.961360         3.202150
  |   10: Species H             -4.546490         2.751300         2.045370
  |   11: Species O             -1.975360         2.858040         0.453140
  |   12: Species H             -1.223550         3.375850         0.786238
  |   13: Species H             -2.537520         2.567960         1.156120
  |   14: Species O             -4.066610         4.258280        -0.900064
  |   15: Species H             -3.224110         3.876870        -0.569443
  |   16: Species H             -3.737450         5.116530        -1.322720
  |   17: Species O             -5.628340         3.730740         1.385610
  |   18: Species H             -6.090650         4.418470         1.860350
  |   19: Species H             -5.158540         4.200260         0.615875
  |

  | The smallest distance between any two atoms is         0.94570141 AA.
  |
  | The first atom of this pair is atom number                     11 .
  | The second atom of this pair is atom number                    13 .

  Structure-dependent array size parameters: 
  | Maximum number of distinct radial functions  :       18
  | Maximum number of basis functions            :      429
  | Number of Kohn-Sham states (occupied + empty):      107
------------------------------------------------------------

------------------------------------------------------------
          Preparing all fixed parts of the calculation.
------------------------------------------------------------
  Determining machine precision:
    2.225073858507201E-308
  Setting up grids for atomic and cluster calculations.

  Creating wave function, potential, and density for free atoms.

  Species: H

  List of occupied orbitals and eigenvalues:
    n    l              occ      energy [Ha]    energy [eV]
    1    0           1.0000        -0.241408        -6.5691


  Species: O

  List of occupied orbitals and eigenvalues:
    n    l              occ      energy [Ha]    energy [eV]
    1    0           2.0000       -18.944147      -515.4965
    2    0           2.0000        -0.883529       -24.0421
    2    1           4.0000        -0.330176        -8.9845

  Creating fixed part of basis set: Ionic, confined, hydrogenic.
 
  H                    hydrogenic:
 
  List of hydrogenic basis orbitals: 
    n    l      effective z      eigenvalue [eV]  inner max. [A]     outer max. [A]     outer radius [A]   
    2    0         2.100000       -14.9965           0.193241           1.317192           5.372934
    2    1         3.500000       -41.6672           0.602363           0.602363           4.056010
    1    0         0.850000        -9.8292           0.624864           0.624864           5.372934
    2    1         3.700000       -46.5653           0.573616           0.573616           3.909951
    2    0         1.200000        -4.5995           0.334977           2.228160           5.505921
    3    2         7.000000       -74.0753           0.680692           0.680692           3.769152
 
 
  O                    hydrogenic:
 
  List of hydrogenic basis orbitals: 
    n    l      effective z      eigenvalue [eV]  inner max. [A]     outer max. [A]     outer radius [A]   
    2    1         1.800000       -11.0118           1.178546           1.178546           5.432516
    3    2         7.600000       -87.3182           0.624117           0.624117           3.541422
    3    0         6.400000       -61.9209           0.061166           1.081887           4.306510
    4    3        11.600000      -114.4238           0.731621           0.731621           3.584982
    3    1         6.200000       -58.1113           0.255677           1.030255           4.306510
    3    2         5.600000       -47.4081           0.847222           0.847222           4.413102
    5    4        17.600000      -168.5799           0.749730           0.749730           3.372413
    1    0         0.750000        -7.6499           0.705275           0.705275           5.366508
 

  Adding cutoff potential to free-atom effective potential.
  Creating atomic-like basis functions for current effective potential.

  Species H                   :

  List of atomic basis orbitals and eigenvalues:
    n    l      energy [Ha]    energy [eV]    outer radius [A]
    1    0        -0.241374        -6.5681       5.372934


  Species O                   :

  List of atomic basis orbitals and eigenvalues:
    n    l      energy [Ha]    energy [eV]    outer radius [A]
    1    0       -18.944147      -515.4965       1.415745
    2    0        -0.883529       -24.0421       5.048305
    2    1        -0.330173        -8.9845       5.301302

  Assembling full basis from fixed parts.
  | Species H :   atomic orbital   1 s accepted.
  | Species H :    hydro orbital   2 s accepted.
  | Species H :    hydro orbital   1 s accepted.
  | Species H :    hydro orbital   2 s accepted.
  | Species H :    hydro orbital   2 p accepted.
  | Species H :    hydro orbital   2 p accepted.
  | Species H :    hydro orbital   3 d accepted.
  | Species O :   atomic orbital   1 s accepted.
  | Species O :    hydro orbital   3 s accepted.
  | Species O :   atomic orbital   2 s accepted.
  | Species O :    hydro orbital   1 s accepted.
  | Species O :    hydro orbital   3 p accepted.
  | Species O :   atomic orbital   2 p accepted.
  | Species O :    hydro orbital   2 p accepted.
  | Species O :    hydro orbital   3 d accepted.
  | Species O :    hydro orbital   3 d accepted.
  | Species O :    hydro orbital   4 f accepted.
  | Species O :    hydro orbital   5 g accepted.
 
  Basis size parameters after reduction:
  | Total number of radial functions:       18
  | Total number of basis functions :      429
 
  Testing on-site integration grid accuracy.
  |  Species  Function  <phi|h_atom|phi> (log., in eV)  <phi|h_atom|phi> (rad., in eV)
           1        1                 -6.5683835025                 -6.5684759159
           1        2                 13.3711789951                 13.3708738703
           1        3                 23.6590910787                 23.6532055418
           1        4                 16.2963827186                 16.1870710655 ***
           1        5                 28.7627214838                 28.7627215090
           1        6                 59.5965249172                 59.5965950857
           1        7                 60.2220506392                 60.2220503827
           2        8               -515.4964576505               -515.4964530710
           2        9                 15.3030791347                 15.3030722972
           2       10                -21.7296094581                -21.7296135470
           2       11                 14.2969371730                 14.2969701621
           2       12                 21.0679693190                 21.0679697493
           2       13                 -2.3833606469                 -2.3833613176
           2       14                 13.7067136422                 13.7066766629
           2       15                 45.8013116808                 45.8013116965
           2       16                 52.2309815402                 52.2309831494
           2       17                 85.4120732416                 85.4120732763
           2       18                142.1019167745                142.1019167817
 * Note: Onsite integrals marked "***" above are less accurate than
 * onsite_accuracy_threshold =    0.03000 eV. Usually, this is harmless.
 * When in doubt, tighten the "radial" and/or "radial_multiplier" flags to check.

  Preparing densities etc. for the partition functions (integrals / Hartree potential).

  Preparations completed.
  max(cpu_time)          :      0.174 s.
  Wall clock time (cpu1) :      0.511 s.
------------------------------------------------------------

------------------------------------------------------------
          Begin self-consistency loop: Initialization.

          Date     :  20150727, Time     :  122420.183
------------------------------------------------------------

  Initializing index lists of integration centers etc. from given atomic structure:
  | Number of centers in hartree potential         :        19
  | Number of centers in hartree multipole         :        19
  | Number of centers in electron density summation:        19
  | Number of centers in basis integrals           :        19
  | Number of centers in integrals                 :        19
  Partitioning the integration grid into batches with parallel hashing+maxmin method.
  | Number of batches:     2556
  | Maximal batch size:     194
  | Minimal batch size:      58
  | Average batch size:      96.888
  | Standard deviation of batch sizes:      31.494

  Integration load balanced across     8 MPI tasks.
  Work distribution over tasks is as follows:
  Task     0 has      30991 integration points.
  Task     1 has      30955 integration points.
  Task     2 has      30918 integration points.
  Task     3 has      30990 integration points.
  Task     4 has      30918 integration points.
  Task     5 has      30955 integration points.
  Task     6 has      30909 integration points.
  Task     7 has      31010 integration points.
  Initializing partition tables, free-atom densities, potentials, etc. across the integration grid (initialize_grid_storage).
  | Net number of integration points:   247646
  | of which are non-zero points    :   247087
  Obtaining max. number of non-zero basis functions in each batch (get_n_compute_maxes).
  | Maximal number of non-zero basis functions:      425 in task     0
  | Maximal number of non-zero basis functions:      425 in task     1
  | Maximal number of non-zero basis functions:      425 in task     2
  | Maximal number of non-zero basis functions:      425 in task     3
  | Maximal number of non-zero basis functions:      425 in task     4
  | Maximal number of non-zero basis functions:      425 in task     5
  | Maximal number of non-zero basis functions:      425 in task     6
  | Maximal number of non-zero basis functions:      425 in task     7
  Integrating Hamiltonian matrix: batch-based integration.
  Time summed over all CPUs for integration: real work       12.734 s, elapsed       13.127 s
  Integrating overlap matrix.
  Time summed over all CPUs for integration: real work        6.925 s, elapsed        7.120 s

  Updating Kohn-Sham eigenvalues, eigenvectors, occupation numbers, and Fermi level.
  Solving generalized eigenproblem
  Updating Kohn-Sham eigenvalues and eigenfunctions.
  Transforming overlap matrix and checking for singularities.
  Overlap matrix is nonsingular:
  | Lowest eigenvalue:  0.233541E-03
  Solving real generalised eigenvalue problem by standard LAPACK (fast)
  Determining occupation numbers for Kohn-Sham eigenstates.
  | Chemical potential (Fermi level) in eV                 : -.29051756E+01
  | Error in electron count due to remaining E_F inaccuracy: 0.63175776E-09
  | Maximum occupation number of highest empty state:  0.00E+00

  Writing Kohn-Sham eigenvalues.

  State    Occupation    Eigenvalue [Ha]    Eigenvalue [eV]
      1       2.00000         -19.064913         -518.78267
      2       2.00000         -19.059287         -518.62959
      3       2.00000         -19.056849         -518.56324
      4       2.00000         -19.050657         -518.39476
      5       2.00000         -19.042634         -518.17644
      6       2.00000         -19.036195         -518.00121
      7       2.00000          -1.124888          -30.60976
      8       2.00000          -1.110064          -30.20638
      9       2.00000          -1.104659          -30.05931
     10       2.00000          -1.100024          -29.93319
     11       2.00000          -1.085871          -29.54807
     12       2.00000          -1.068258          -29.06877
     13       2.00000          -0.655700          -17.84251
     14       2.00000          -0.653878          -17.79292
     15       2.00000          -0.639734          -17.40804
     16       2.00000          -0.632400          -17.20847
     17       2.00000          -0.608712          -16.56389
     18       2.00000          -0.606106          -16.49299
     19       2.00000          -0.602283          -16.38896
     20       2.00000          -0.529628          -14.41192
     21       2.00000          -0.517739          -14.08841
     22       2.00000          -0.510764          -13.89859
     23       2.00000          -0.506269          -13.77628
     24       2.00000          -0.491064          -13.36253
     25       2.00000          -0.483383          -13.15353
     26       2.00000          -0.446854          -12.15952
     27       2.00000          -0.444317          -12.09048
     28       2.00000          -0.440235          -11.97940
     29       2.00000          -0.433244          -11.78917
     30       2.00000          -0.430326          -11.70977
     31       1.00000          -0.106763           -2.90518
     32       0.00000          -0.080276           -2.18443
     33       0.00000          -0.065103           -1.77155
     34       0.00000          -0.051632           -1.40497
     35       0.00000          -0.042051           -1.14427
     36       0.00000          -0.032200           -0.87620
     37       0.00000          -0.023886           -0.64996
     38       0.00000           0.024423            0.66458
     39       0.00000           0.034811            0.94726
     40       0.00000           0.039056            1.06277
     41       0.00000           0.045760            1.24519
     42       0.00000           0.054441            1.48142
     43       0.00000           0.057904            1.57564
     44       0.00000           0.062979            1.71376
     45       0.00000           0.069389            1.88818
     46       0.00000           0.087793            2.38898
     47       0.00000           0.091295            2.48427
     48       0.00000           0.094532            2.57234
     49       0.00000           0.103778            2.82393
     50       0.00000           0.107744            2.93186
     51       0.00000           0.111882            3.04447
     52       0.00000           0.121317            3.30122
     53       0.00000           0.125622            3.41836
     54       0.00000           0.135797            3.69523
     55       0.00000           0.137819            3.75024
     56       0.00000           0.144115            3.92157
     57       0.00000           0.148141            4.03112
     58       0.00000           0.153007            4.16353
     59       0.00000           0.162553            4.42329
     60       0.00000           0.166103            4.51990
     61       0.00000           0.191758            5.21801
     62       0.00000           0.217171            5.90952
     63       0.00000           0.230640            6.27604
     64       0.00000           0.238118            6.47952
     65       0.00000           0.241506            6.57171
     66       0.00000           0.251751            6.85050
     67       0.00000           0.263877            7.18045
     68       0.00000           0.274715            7.47539
     69       0.00000           0.281897            7.67082
     70       0.00000           0.294789            8.02161
     71       0.00000           0.302110            8.22082
     72       0.00000           0.320198            8.71304
     73       0.00000           0.323518            8.80337
     74       0.00000           0.329060            8.95417
     75       0.00000           0.350054            9.52546
     76       0.00000           0.359408            9.78000
     77       0.00000           0.366360            9.96917
     78       0.00000           0.370376           10.07844
     79       0.00000           0.392152           10.67100
     80       0.00000           0.394983           10.74803
     81       0.00000           0.400619           10.90140
     82       0.00000           0.408383           11.11268
     83       0.00000           0.419907           11.42624
     84       0.00000           0.437896           11.91576
     85       0.00000           0.443487           12.06789
     86       0.00000           0.462027           12.57239
     87       0.00000           0.474476           12.91115
     88       0.00000           0.482095           13.11847
     89       0.00000           0.495120           13.47290
     90       0.00000           0.507125           13.79958
     91       0.00000           0.524432           14.27051
     92       0.00000           0.531158           14.45354
     93       0.00000           0.550377           14.97651
     94       0.00000           0.570858           15.53384
     95       0.00000           0.584790           15.91294
     96       0.00000           0.601031           16.35489
     97       0.00000           0.610951           16.62483
     98       0.00000           0.628981           17.11546
     99       0.00000           0.681407           18.54204
    100       0.00000           0.689734           18.76863
    101       0.00000           0.706854           19.23446
    102       0.00000           0.721801           19.64120
    103       0.00000           0.745820           20.29480
    104       0.00000           0.759401           20.66434
    105       0.00000           0.765203           20.82223
    106       0.00000           0.783172           21.31119
    107       0.00000           0.801188           21.80143

  Highest occupied state (VBM) at     -2.90517563 eV
  | Occupation number:      1.00000000

  Lowest unoccupied state (CBM) at    -2.18443461 eV
  | Occupation number:      0.00000000

  Overall HOMO-LUMO gap:      0.72074102 eV.
  Calculating total energy contributions from superposition of free atom densities.

  Total energy components:
  | Sum of eigenvalues            :        -261.18063693 Ha       -7107.08673534 eV
  | XC energy correction          :         -55.08637664 Ha       -1498.97657537 eV
  | XC potential correction       :          70.40958499 Ha        1915.94228965 eV
  | Free-atom electrostatic energy:        -214.29564846 Ha       -5831.28128701 eV
  | Hartree energy correction     :           0.00000000 Ha           0.00000000 eV
  | van der Waals energy corr.    :           0.00000000 Ha           0.00000000 eV
  | Entropy correction            :          -0.00010367 Ha          -0.00282095 eV
  | ---------------------------
  | Total energy                  :        -460.15307704 Ha      -12521.40230806 eV
  | Total energy, T -> 0          :        -460.15318070 Ha      -12521.40512901 eV  <-- do not rely on this value for anything but (periodic) metals
  | Electronic free energy        :        -460.15328437 Ha      -12521.40794996 eV

  Derived energy quantities:
  | Kinetic energy                :         455.75735492 Ha       12401.78862353 eV
  | Electrostatic energy          :        -860.82405532 Ha      -23424.21435623 eV
  | Energy correction for multipole
  | error in Hartree potential    :           0.00000000 Ha           0.00000000 eV
  | Sum of eigenvalues per atom                           :        -374.05719660 eV
  | Total energy (T->0) per atom                          :        -659.02132258 eV  <-- do not rely on this value for anything but (periodic) metals
  | Electronic free energy per atom                       :        -659.02147105 eV
  Initialize hartree_potential_storage
  Max. number of atoms included in rho_multipole:           19

  End scf initialization - timings             :  max(cpu_time)    wall_clock(cpu1)
  | Time for scf. initialization               :        3.360 s           3.360 s
  | Boundary condition initialization          :        0.000 s           0.000 s
  | Integration                                :        2.537 s           2.536 s
  | Solution of K.-S. eqns.                    :        0.327 s           0.327 s
  | Grid partitioning                          :        0.173 s           0.173 s
  | Preloading free-atom quantities on grid    :        0.014 s           0.014 s
  | Free-atom superposition energy             :        0.097 s           0.097 s
  | Total energy evaluation                    :        0.000 s           0.000 s
------------------------------------------------------------

------------------------------------------------------------
          Begin self-consistency iteration #    1

  Date     :  20150727, Time     :  122423.543
------------------------------------------------------------
  Evaluating new KS density.
  Integration grid: deviation in total charge (<rho> - N_e) =   6.317435E-10
  Pulay mixing of updated and previous charge densities.

  Evaluating partitioned Hartree potential by multipole expansion.
  | Analytical far-field extrapolation by fixed multipoles:
  | Hartree multipole sum: apparent total charge =  -0.121913E-05
  Summing up the Hartree potential.
  Time summed over all CPUs for potential: real work        4.067 s, elapsed        4.101 s
  | RMS charge density error from multipole expansion :   0.184350E-02

  Integrating Hamiltonian matrix: batch-based integration.
  Time summed over all CPUs for integration: real work       12.729 s, elapsed       13.134 s

  Updating Kohn-Sham eigenvalues, eigenvectors, occupation numbers, and Fermi level.
  Solving generalized eigenproblem
  Updating Kohn-Sham eigenvalues and eigenfunctions.
  Solving real generalised eigenvalue problem by standard LAPACK (fast)
  Determining occupation numbers for Kohn-Sham eigenstates.
  | Chemical potential (Fermi level) in eV                 : -.26474771E+01
  | Error in electron count due to remaining E_F inaccuracy: 0.85265128E-13
  | Maximum occupation number of highest empty state:  0.00E+00

  Writing Kohn-Sham eigenvalues.

  State    Occupation    Eigenvalue [Ha]    Eigenvalue [eV]
      1       2.00000         -19.010642         -517.30590
      2       2.00000         -18.983462         -516.56628
      3       2.00000         -18.977032         -516.39131
      4       2.00000         -18.974154         -516.31300
      5       2.00000         -18.966210         -516.09684
      6       2.00000         -18.965760         -516.08459
      7       2.00000          -1.096670          -29.84191
      8       2.00000          -1.070072          -29.11814
      9       2.00000          -1.066971          -29.03375
     10       2.00000          -1.062403          -28.90946
     11       2.00000          -1.046242          -28.46970
     12       2.00000          -1.031959          -28.08102
     13       2.00000          -0.622517          -16.93954
     14       2.00000          -0.617463          -16.80203
     15       2.00000          -0.615078          -16.73713
     16       2.00000          -0.600327          -16.33572
     17       2.00000          -0.579794          -15.77699
     18       2.00000          -0.576017          -15.67423
     19       2.00000          -0.573099          -15.59481
     20       2.00000          -0.494073          -13.44440
     21       2.00000          -0.483754          -13.16363
     22       2.00000          -0.472552          -12.85880
     23       2.00000          -0.466193          -12.68575
     24       2.00000          -0.457367          -12.44560
     25       2.00000          -0.448651          -12.20842
     26       2.00000          -0.408284          -11.10997
     27       2.00000          -0.402291          -10.94690
     28       2.00000          -0.400647          -10.90217
     29       2.00000          -0.394424          -10.73282
     30       2.00000          -0.389743          -10.60544
     31       1.00000          -0.097293           -2.64748
     32       0.00000          -0.071121           -1.93531
     33       0.00000          -0.056182           -1.52879
     34       0.00000          -0.043202           -1.17559
     35       0.00000          -0.034076           -0.92726
     36       0.00000          -0.024452           -0.66538
     37       0.00000          -0.015677           -0.42658
     38       0.00000           0.035824            0.97483
     39       0.00000           0.042538            1.15751
     40       0.00000           0.047441            1.29093
     41       0.00000           0.053793            1.46378
     42       0.00000           0.064594            1.75770
     43       0.00000           0.067628            1.84025
     44       0.00000           0.071635            1.94930
     45       0.00000           0.076441            2.08008
     46       0.00000           0.094470            2.57065
     47       0.00000           0.100919            2.74615
     48       0.00000           0.102899            2.80002
     49       0.00000           0.113155            3.07909
     50       0.00000           0.118383            3.22136
     51       0.00000           0.121323            3.30137
     52       0.00000           0.132157            3.59617
     53       0.00000           0.139773            3.80342
     54       0.00000           0.146457            3.98531
     55       0.00000           0.148158            4.03159
     56       0.00000           0.158161            4.30378
     57       0.00000           0.161616            4.39780
     58       0.00000           0.165118            4.49309
     59       0.00000           0.178274            4.85107
     60       0.00000           0.179197            4.87620
     61       0.00000           0.202030            5.49751
     62       0.00000           0.225481            6.13564
     63       0.00000           0.238716            6.49579
     64       0.00000           0.247119            6.72446
     65       0.00000           0.250605            6.81931
     66       0.00000           0.259995            7.07482
     67       0.00000           0.273126            7.43215
     68       0.00000           0.284179            7.73290
     69       0.00000           0.290599            7.90760
     70       0.00000           0.304057            8.27381
     71       0.00000           0.309641            8.42576
     72       0.00000           0.329190            8.95771
     73       0.00000           0.331537            9.02159
     74       0.00000           0.338838            9.22025
     75       0.00000           0.359177            9.77370
     76       0.00000           0.368605           10.03026
     77       0.00000           0.375409           10.21540
     78       0.00000           0.379071           10.31504
     79       0.00000           0.401092           10.91426
     80       0.00000           0.403695           10.98510
     81       0.00000           0.409397           11.14027
     82       0.00000           0.416233           11.32627
     83       0.00000           0.430104           11.70374
     84       0.00000           0.446176           12.14108
     85       0.00000           0.453859           12.35014
     86       0.00000           0.470630           12.80650
     87       0.00000           0.484122           13.17363
     88       0.00000           0.490617           13.35037
     89       0.00000           0.507400           13.80707
     90       0.00000           0.520478           14.16294
     91       0.00000           0.535390           14.56870
     92       0.00000           0.542839           14.77141
     93       0.00000           0.560144           15.24229
     94       0.00000           0.582247           15.84375
     95       0.00000           0.598274           16.27988
     96       0.00000           0.614150           16.71187
     97       0.00000           0.623020           16.95325
     98       0.00000           0.639929           17.41335
     99       0.00000           0.692202           18.83578
    100       0.00000           0.702373           19.11255
    101       0.00000           0.720254           19.59910
    102       0.00000           0.734995           20.00023
    103       0.00000           0.757734           20.61899
    104       0.00000           0.770740           20.97291
    105       0.00000           0.776850           21.13916
    106       0.00000           0.795671           21.65131
    107       0.00000           0.813072           22.12481

  Highest occupied state (VBM) at     -2.64747709 eV
  | Occupation number:      1.00000000

  Lowest unoccupied state (CBM) at    -1.93530562 eV
  | Occupation number:      0.00000000

  Overall HOMO-LUMO gap:      0.71217147 eV.

  Total energy components:
  | Sum of eigenvalues            :        -258.60499459 Ha       -7036.99994152 eV
  | XC energy correction          :         -55.35345589 Ha       -1506.24417175 eV
  | XC potential correction       :          70.75807350 Ha        1925.42514454 eV
  | Free-atom electrostatic energy:        -214.29564846 Ha       -5831.28128701 eV
  | Hartree energy correction     :          -2.51224101 Ha         -68.36155620 eV
  | van der Waals energy corr.    :           0.00000000 Ha           0.00000000 eV
  | Entropy correction            :          -0.00010367 Ha          -0.00282095 eV
  | ---------------------------
  | Total energy                  :        -460.00826646 Ha      -12517.46181194 eV
  | Total energy, T -> 0          :        -460.00837013 Ha      -12517.46463289 eV  <-- do not rely on this value for anything but (periodic) metals
  | Electronic free energy        :        -460.00847380 Ha      -12517.46745384 eV

  Derived energy quantities:
  | Kinetic energy                :         457.37714186 Ha       12445.86526862 eV
  | Electrostatic energy          :        -862.03195243 Ha      -23457.08290882 eV
  | Energy correction for multipole
  | error in Hartree potential    :           0.00058216 Ha           0.01584130 eV
  | Sum of eigenvalues per atom                           :        -370.36841797 eV
  | Total energy (T->0) per atom                          :        -658.81392805 eV  <-- do not rely on this value for anything but (periodic) metals
  | Electronic free energy per atom                       :        -658.81407652 eV

  Self-consistency convergence accuracy:
  | Change of charge density      : 0.6968E+00
  | Change of sum of eigenvalues  : 0.7009E+02 eV
  | Change of total energy        : 0.3940E+01 eV

  End self-consistency iteration #     1       :  max(cpu_time)    wall_clock(cpu1)
  | Time for this iteration                    :        3.354 s           3.354 s
  | Charge density update                      :        1.093 s           1.093 s
  | Density mixing                             :        0.005 s           0.004 s
  | Hartree multipole update                   :        0.006 s           0.007 s
  | Hartree multipole summation                :        0.514 s           0.513 s
  | Integration                                :        1.644 s           1.645 s
  | Solution of K.-S. eqns.                    :        0.092 s           0.091 s
  | Total energy evaluation                    :        0.001 s           0.000 s
------------------------------------------------------------

------------------------------------------------------------
          Begin self-consistency iteration #    2

  Date     :  20150727, Time     :  122426.898
------------------------------------------------------------
  Evaluating new KS density.
  Integration grid: deviation in total charge (<rho> - N_e) =   9.237056E-14
  Pulay mixing of updated and previous charge densities.

  Evaluating partitioned Hartree potential by multipole expansion.
  | Analytical far-field extrapolation by fixed multipoles:
  | Hartree multipole sum: apparent total charge =  -0.343412E-05
  Summing up the Hartree potential.
  Time summed over all CPUs for potential: real work        4.067 s, elapsed        4.100 s
  | RMS charge density error from multipole expansion :   0.754404E-02

  Integrating Hamiltonian matrix: batch-based integration.
  Time summed over all CPUs for integration: real work       12.695 s, elapsed       13.100 s

  Updating Kohn-Sham eigenvalues, eigenvectors, occupation numbers, and Fermi level.
  Solving generalized eigenproblem
  Updating Kohn-Sham eigenvalues and eigenfunctions.
  Solving real generalised eigenvalue problem by standard LAPACK (fast)
  Determining occupation numbers for Kohn-Sham eigenstates.
  | Chemical potential (Fermi level) in eV                 : -.20228557E+01
  | Error in electron count due to remaining E_F inaccuracy: -.41695287E-08
  | Maximum occupation number of highest empty state:  0.00E+00

  Highest occupied state (VBM) at     -7.81334726 eV
  | Occupation number:      2.00000000

  Lowest unoccupied state (CBM) at    -2.02285569 eV
  | Occupation number:      1.00000000

  Overall HOMO-LUMO gap:      5.79049157 eV.

  Total energy components:
  | Sum of eigenvalues            :        -252.32612062 Ha       -6866.14308769 eV
  | XC energy correction          :         -56.03659493 Ha       -1524.83333071 eV
  | XC potential correction       :          71.64762934 Ha        1949.63119047 eV
  | Free-atom electrostatic energy:        -214.29564846 Ha       -5831.28128701 eV
  | Hartree energy correction     :          -8.83175106 Ha        -240.32417401 eV
  | van der Waals energy corr.    :           0.00000000 Ha           0.00000000 eV
  | Entropy correction            :          -0.00010367 Ha          -0.00282095 eV
  | ---------------------------
  | Total energy                  :        -459.84248574 Ha      -12512.95068896 eV
  | Total energy, T -> 0          :        -459.84258941 Ha      -12512.95350990 eV  <-- do not rely on this value for anything but (periodic) metals
  | Electronic free energy        :        -459.84269308 Ha      -12512.95633085 eV

  Derived energy quantities:
  | Kinetic energy                :         460.79524406 Ha       12538.87656184 eV
  | Electrostatic energy          :        -864.60113487 Ha      -23526.99392009 eV
  | Energy correction for multipole
  | error in Hartree potential    :           0.00116290 Ha           0.03164424 eV
  | Sum of eigenvalues per atom                           :        -361.37595198 eV
  | Total energy (T->0) per atom                          :        -658.57650052 eV  <-- do not rely on this value for anything but (periodic) metals
  | Electronic free energy per atom                       :        -658.57664899 eV

  Self-consistency convergence accuracy:
  | Change of charge density      : 0.5300E+00
  | Change of sum of eigenvalues  : 0.1709E+03 eV
  | Change of total energy        : 0.4511E+01 eV

  End self-consistency iteration #     2       :  max(cpu_time)    wall_clock(cpu1)
  | Time for this iteration                    :        3.344 s           3.344 s
  | Charge density update                      :        1.087 s           1.086 s
  | Density mixing                             :        0.007 s           0.007 s
  | Hartree multipole update                   :        0.006 s           0.007 s
  | Hartree multipole summation                :        0.514 s           0.513 s
  | Integration                                :        1.640 s           1.640 s
  | Solution of K.-S. eqns.                    :        0.090 s           0.090 s
  | Total energy evaluation                    :        0.000 s           0.000 s
------------------------------------------------------------

------------------------------------------------------------
          Begin self-consistency iteration #    3

  Date     :  20150727, Time     :  122430.242
------------------------------------------------------------
  Evaluating new KS density.
  Integration grid: deviation in total charge (<rho> - N_e) =  -4.169515E-09
  Pulay mixing of updated and previous charge densities.

  Evaluating partitioned Hartree potential by multipole expansion.
  | Analytical far-field extrapolation by fixed multipoles:
  | Hartree multipole sum: apparent total charge =  -0.239759E-05
  Summing up the Hartree potential.
  Time summed over all CPUs for potential: real work        4.067 s, elapsed        4.101 s
  | RMS charge density error from multipole expansion :   0.152428E-01

  Integrating Hamiltonian matrix: batch-based integration.
  Time summed over all CPUs for integration: real work       12.697 s, elapsed       13.095 s

  Updating Kohn-Sham eigenvalues, eigenvectors, occupation numbers, and Fermi level.
  Solving generalized eigenproblem
  Updating Kohn-Sham eigenvalues and eigenfunctions.
  Solving real generalised eigenvalue problem by standard LAPACK (fast)
  Determining occupation numbers for Kohn-Sham eigenstates.
  | Chemical potential (Fermi level) in eV                 : -.20188505E+01
  | Error in electron count due to remaining E_F inaccuracy: 0.00000000E+00
  | Maximum occupation number of highest empty state:  0.00E+00

  Highest occupied state (VBM) at     -2.01885051 eV
  | Occupation number:      1.00000000

  Lowest unoccupied state (CBM) at    -2.01885051 eV
  | Occupation number:      1.00000000

  Overall HOMO-LUMO gap:      0.00000000 eV.

  Total energy components:
  | Sum of eigenvalues            :        -252.60118562 Ha       -6873.62798713 eV
  | XC energy correction          :         -56.03437801 Ha       -1524.77300516 eV
  | XC potential correction       :          71.63480530 Ha        1949.28223069 eV
  | Free-atom electrostatic energy:        -214.29564846 Ha       -5831.28128701 eV
  | Hartree energy correction     :          -8.54408198 Ha        -232.49630005 eV
  | van der Waals energy corr.    :           0.00000000 Ha           0.00000000 eV
  | Entropy correction            :          -0.00010367 Ha          -0.00282095 eV
  | ---------------------------
  | Total energy                  :        -459.84048877 Ha      -12512.89634867 eV
  | Total energy, T -> 0          :        -459.84059244 Ha      -12512.89916962 eV  <-- do not rely on this value for anything but (periodic) metals
  | Electronic free energy        :        -459.84069611 Ha      -12512.90199057 eV

  Derived energy quantities:
  | Kinetic energy                :         458.65138410 Ha       12480.53916412 eV
  | Electrostatic energy          :        -862.45749486 Ha      -23468.66250763 eV
  | Energy correction for multipole
  | error in Hartree potential    :          -0.00391412 Ha          -0.10650874 eV
  | Sum of eigenvalues per atom                           :        -361.76989406 eV
  | Total energy (T->0) per atom                          :        -658.57364051 eV  <-- do not rely on this value for anything but (periodic) metals
  | Electronic free energy per atom                       :        -658.57378898 eV

  Self-consistency convergence accuracy:
  | Change of charge density      : 0.2547E+00
  | Change of sum of eigenvalues  : -.7485E+01 eV
  | Change of total energy        : 0.5434E-01 eV

  End self-consistency iteration #     3       :  max(cpu_time)    wall_clock(cpu1)
  | Time for this iteration                    :        3.341 s           3.341 s
  | Charge density update                      :        1.081 s           1.081 s
  | Density mixing                             :        0.009 s           0.008 s
  | Hartree multipole update                   :        0.006 s           0.007 s
  | Hartree multipole summation                :        0.514 s           0.513 s
  | Integration                                :        1.639 s           1.640 s
  | Solution of K.-S. eqns.                    :        0.092 s           0.092 s
  | Total energy evaluation                    :        0.000 s           0.000 s
------------------------------------------------------------

------------------------------------------------------------
          Begin self-consistency iteration #    4

  Date     :  20150727, Time     :  122433.583
------------------------------------------------------------
  Evaluating new KS density.
  Integration grid: deviation in total charge (<rho> - N_e) =   1.421085E-14
  Pulay mixing of updated and previous charge densities.

  Evaluating partitioned Hartree potential by multipole expansion.
  | Analytical far-field extrapolation by fixed multipoles:
  | Hartree multipole sum: apparent total charge =  -0.253759E-05
  Summing up the Hartree potential.
  Time summed over all CPUs for potential: real work        4.066 s, elapsed        4.098 s
  | RMS charge density error from multipole expansion :   0.194271E-01

  Integrating Hamiltonian matrix: batch-based integration.
  Time summed over all CPUs for integration: real work       12.693 s, elapsed       13.109 s

  Updating Kohn-Sham eigenvalues, eigenvectors, occupation numbers, and Fermi level.
  Solving generalized eigenproblem
  Updating Kohn-Sham eigenvalues and eigenfunctions.
  Solving real generalised eigenvalue problem by standard LAPACK (fast)
  Determining occupation numbers for Kohn-Sham eigenstates.
  | Chemical potential (Fermi level) in eV                 : -.18470309E+01
  | Error in electron count due to remaining E_F inaccuracy: 0.97919894E-10
  | Maximum occupation number of highest empty state:  0.00E+00

  Highest occupied state (VBM) at     -1.84703087 eV
  | Occupation number:      1.00000000

  Lowest unoccupied state (CBM) at    -1.17318094 eV
  | Occupation number:      0.00000000

  Overall HOMO-LUMO gap:      0.67384992 eV.

  Total energy components:
  | Sum of eigenvalues            :        -251.15847833 Ha       -6834.36992429 eV
  | XC energy correction          :         -56.22087408 Ha       -1529.84782163 eV
  | XC potential correction       :          71.87445120 Ha        1955.80332743 eV
  | Free-atom electrostatic energy:        -214.29564846 Ha       -5831.28128701 eV
  | Hartree energy correction     :         -10.03379295 Ha        -273.03339797 eV
  | van der Waals energy corr.    :           0.00000000 Ha           0.00000000 eV
  | Entropy correction            :          -0.00010367 Ha          -0.00282095 eV
  | ---------------------------
  | Total energy                  :        -459.83434263 Ha      -12512.72910347 eV
  | Total energy, T -> 0          :        -459.83444629 Ha      -12512.73192442 eV  <-- do not rely on this value for anything but (periodic) metals
  | Electronic free energy        :        -459.83454996 Ha      -12512.73474537 eV

  Derived energy quantities:
  | Kinetic energy                :         458.70069854 Ha       12481.88107847 eV
  | Electrostatic energy          :        -862.31416708 Ha      -23464.76236031 eV
  | Energy correction for multipole
  | error in Hartree potential    :          -0.00571275 Ha          -0.15545197 eV
  | Sum of eigenvalues per atom                           :        -359.70368023 eV
  | Total energy (T->0) per atom                          :        -658.56483813 eV  <-- do not rely on this value for anything but (periodic) metals
  | Electronic free energy per atom                       :        -658.56498660 eV

  Self-consistency convergence accuracy:
  | Change of charge density      : 0.1150E+00
  | Change of sum of eigenvalues  : 0.3926E+02 eV
  | Change of total energy        : 0.1672E+00 eV

  End self-consistency iteration #     4       :  max(cpu_time)    wall_clock(cpu1)
  | Time for this iteration                    :        3.344 s           3.345 s
  | Charge density update                      :        1.082 s           1.082 s
  | Density mixing                             :        0.010 s           0.011 s
  | Hartree multipole update                   :        0.007 s           0.006 s
  | Hartree multipole summation                :        0.513 s           0.513 s
  | Integration                                :        1.641 s           1.641 s
  | Solution of K.-S. eqns.                    :        0.092 s           0.092 s
  | Total energy evaluation                    :        0.000 s           0.000 s
------------------------------------------------------------

------------------------------------------------------------
          Begin self-consistency iteration #    5

  Date     :  20150727, Time     :  122436.928
------------------------------------------------------------
  Evaluating new KS density.
  Integration grid: deviation in total charge (<rho> - N_e) =   9.796253E-11
  Pulay mixing of updated and previous charge densities.

  Evaluating partitioned Hartree potential by multipole expansion.
  | Analytical far-field extrapolation by fixed multipoles:
  | Hartree multipole sum: apparent total charge =  -0.249425E-05
  Summing up the Hartree potential.
  Time summed over all CPUs for potential: real work        4.066 s, elapsed        4.099 s
  | RMS charge density error from multipole expansion :   0.197970E-01

  Integrating Hamiltonian matrix: batch-based integration.
  Time summed over all CPUs for integration: real work       12.688 s, elapsed       13.100 s

  Updating Kohn-Sham eigenvalues, eigenvectors, occupation numbers, and Fermi level.
  Solving generalized eigenproblem
  Updating Kohn-Sham eigenvalues and eigenfunctions.
  Solving real generalised eigenvalue problem by standard LAPACK (fast)
  Determining occupation numbers for Kohn-Sham eigenstates.
  | Chemical potential (Fermi level) in eV                 : -.18034360E+01
  | Error in electron count due to remaining E_F inaccuracy: 0.00000000E+00
  | Maximum occupation number of highest empty state:  0.00E+00

  Highest occupied state (VBM) at     -1.80343599 eV
  | Occupation number:      1.00000000

  Lowest unoccupied state (CBM) at    -1.80343599 eV
  | Occupation number:      1.00000000

  Overall HOMO-LUMO gap:      0.00000000 eV.

  Total energy components:
  | Sum of eigenvalues            :        -251.06798835 Ha       -6831.90756669 eV
  | XC energy correction          :         -56.23409139 Ha       -1530.20748284 eV
  | XC potential correction       :          71.89129295 Ha        1956.26161472 eV
  | Free-atom electrostatic energy:        -214.29564846 Ha       -5831.28128701 eV
  | Hartree energy correction     :         -10.12780004 Ha        -275.59146090 eV
  | van der Waals energy corr.    :           0.00000000 Ha           0.00000000 eV
  | Entropy correction            :          -0.00010367 Ha          -0.00282095 eV
  | ---------------------------
  | Total energy                  :        -459.83423529 Ha      -12512.72618273 eV
  | Total energy, T -> 0          :        -459.83433896 Ha      -12512.72900367 eV  <-- do not rely on this value for anything but (periodic) metals
  | Electronic free energy        :        -459.83444263 Ha      -12512.73182462 eV

  Derived energy quantities:
  | Kinetic energy                :         458.74916053 Ha       12483.19979617 eV
  | Electrostatic energy          :        -862.34930443 Ha      -23465.71849605 eV
  | Energy correction for multipole
  | error in Hartree potential    :          -0.00601495 Ha          -0.16367503 eV
  | Sum of eigenvalues per atom                           :        -359.57408246 eV
  | Total energy (T->0) per atom                          :        -658.56468440 eV  <-- do not rely on this value for anything but (periodic) metals
  | Electronic free energy per atom                       :        -658.56483287 eV

  Self-consistency convergence accuracy:
  | Change of charge density      : 0.1904E-01
  | Change of sum of eigenvalues  : 0.2462E+01 eV
  | Change of total energy        : 0.2921E-02 eV

  End self-consistency iteration #     5       :  max(cpu_time)    wall_clock(cpu1)
  | Time for this iteration                    :        3.344 s           3.345 s
  | Charge density update                      :        1.081 s           1.080 s
  | Density mixing                             :        0.012 s           0.013 s
  | Hartree multipole update                   :        0.006 s           0.006 s
  | Hartree multipole summation                :        0.513 s           0.513 s
  | Integration                                :        1.641 s           1.640 s
  | Solution of K.-S. eqns.                    :        0.092 s           0.092 s
  | Total energy evaluation                    :        0.000 s           0.000 s
------------------------------------------------------------

------------------------------------------------------------
          Begin self-consistency iteration #    6

  Date     :  20150727, Time     :  122440.273
------------------------------------------------------------
  Evaluating new KS density.
  Integration grid: deviation in total charge (<rho> - N_e) =  -7.105427E-15
  Pulay mixing of updated and previous charge densities.

  Evaluating partitioned Hartree potential by multipole expansion.
  | Analytical far-field extrapolation by fixed multipoles:
  | Hartree multipole sum: apparent total charge =  -0.244054E-05
  Summing up the Hartree potential.
  Time summed over all CPUs for potential: real work        4.066 s, elapsed        4.100 s
  | RMS charge density error from multipole expansion :   0.199515E-01

  Integrating Hamiltonian matrix: batch-based integration.
  Time summed over all CPUs for integration: real work       12.691 s, elapsed       13.101 s

  Updating Kohn-Sham eigenvalues, eigenvectors, occupation numbers, and Fermi level.
  Solving generalized eigenproblem
  Updating Kohn-Sham eigenvalues and eigenfunctions.
  Solving real generalised eigenvalue problem by standard LAPACK (fast)
  Determining occupation numbers for Kohn-Sham eigenstates.
  | Chemical potential (Fermi level) in eV                 : -.18163385E+01
  | Error in electron count due to remaining E_F inaccuracy: -.21316282E-12
  | Maximum occupation number of highest empty state:  0.00E+00

  Highest occupied state (VBM) at     -6.89208605 eV
  | Occupation number:      2.00000000

  Lowest unoccupied state (CBM) at    -1.81633853 eV
  | Occupation number:      1.00000000

  Overall HOMO-LUMO gap:      5.07574752 eV.

  Total energy components:
  | Sum of eigenvalues            :        -251.14978945 Ha       -6834.13348789 eV
  | XC energy correction          :         -56.22699016 Ha       -1530.01424851 eV
  | XC potential correction       :          71.88164125 Ha        1955.99897857 eV
  | Free-atom electrostatic energy:        -214.29564846 Ha       -5831.28128701 eV
  | Hartree energy correction     :         -10.04340438 Ha        -273.29493815 eV
  | van der Waals energy corr.    :           0.00000000 Ha           0.00000000 eV
  | Entropy correction            :          -0.00010367 Ha          -0.00282095 eV
  | ---------------------------
  | Total energy                  :        -459.83419120 Ha      -12512.72498298 eV
  | Total energy, T -> 0          :        -459.83429487 Ha      -12512.72780393 eV  <-- do not rely on this value for anything but (periodic) metals
  | Electronic free energy        :        -459.83439854 Ha      -12512.73062488 eV

  Derived energy quantities:
  | Kinetic energy                :         458.71566803 Ha       12482.28841883 eV
  | Electrostatic energy          :        -862.32286907 Ha      -23464.99915331 eV
  | Energy correction for multipole
  | error in Hartree potential    :          -0.00628220 Ha          -0.17094725 eV
  | Sum of eigenvalues per atom                           :        -359.69123620 eV
  | Total energy (T->0) per atom                          :        -658.56462126 eV  <-- do not rely on this value for anything but (periodic) metals
  | Electronic free energy per atom                       :        -658.56476973 eV

  Self-consistency convergence accuracy:
  | Change of charge density      : 0.1161E-01
  | Change of sum of eigenvalues  : -.2226E+01 eV
  | Change of total energy        : 0.1200E-02 eV

  End self-consistency iteration #     6       :  max(cpu_time)    wall_clock(cpu1)
  | Time for this iteration                    :        3.346 s           3.347 s
  | Charge density update                      :        1.081 s           1.081 s
  | Density mixing                             :        0.014 s           0.014 s
  | Hartree multipole update                   :        0.006 s           0.006 s
  | Hartree multipole summation                :        0.514 s           0.513 s
  | Integration                                :        1.640 s           1.640 s
  | Solution of K.-S. eqns.                    :        0.091 s           0.091 s
  | Total energy evaluation                    :        0.001 s           0.001 s
------------------------------------------------------------

------------------------------------------------------------
          Begin self-consistency iteration #    7

  Date     :  20150727, Time     :  122443.620
------------------------------------------------------------
  Evaluating new KS density.
  Integration grid: deviation in total charge (<rho> - N_e) =  -1.634248E-13
  Pulay mixing of updated and previous charge densities.

  Evaluating partitioned Hartree potential by multipole expansion.
  | Analytical far-field extrapolation by fixed multipoles:
  | Hartree multipole sum: apparent total charge =  -0.239265E-05
  Summing up the Hartree potential.
  Time summed over all CPUs for potential: real work        4.066 s, elapsed        4.098 s
  | RMS charge density error from multipole expansion :   0.199360E-01

  Integrating Hamiltonian matrix: batch-based integration.
  Time summed over all CPUs for integration: real work       12.697 s, elapsed       13.102 s

  Updating Kohn-Sham eigenvalues, eigenvectors, occupation numbers, and Fermi level.
  Solving generalized eigenproblem
  Updating Kohn-Sham eigenvalues and eigenfunctions.
  Solving real generalised eigenvalue problem by standard LAPACK (fast)
  Determining occupation numbers for Kohn-Sham eigenstates.
  | Chemical potential (Fermi level) in eV                 : -.18342765E+01
  | Error in electron count due to remaining E_F inaccuracy: 0.46895821E-12
  | Maximum occupation number of highest empty state:  0.00E+00

  Highest occupied state (VBM) at     -1.83427650 eV
  | Occupation number:      1.00000000

  Lowest unoccupied state (CBM) at    -1.18968791 eV
  | Occupation number:      0.00000000

  Overall HOMO-LUMO gap:      0.64458859 eV.

  Total energy components:
  | Sum of eigenvalues            :        -251.22469071 Ha       -6836.17165473 eV
  | XC energy correction          :         -56.21985900 Ha       -1529.82019992 eV
  | XC potential correction       :          71.87211126 Ha        1955.73965421 eV
  | Free-atom electrostatic energy:        -214.29564846 Ha       -5831.28128701 eV
  | Hartree energy correction     :          -9.96607303 Ha        -271.19064522 eV
  | van der Waals energy corr.    :           0.00000000 Ha           0.00000000 eV
  | Entropy correction            :          -0.00010367 Ha          -0.00282095 eV
  | ---------------------------
  | Total energy                  :        -459.83415995 Ha      -12512.72413267 eV
  | Total energy, T -> 0          :        -459.83426362 Ha      -12512.72695362 eV  <-- do not rely on this value for anything but (periodic) metals
  | Electronic free energy        :        -459.83436729 Ha      -12512.72977457 eV

  Derived energy quantities:
  | Kinetic energy                :         458.74658583 Ha       12483.12973496 eV
  | Electrostatic energy          :        -862.36088677 Ha      -23466.03366772 eV
  | Energy correction for multipole
  | error in Hartree potential    :          -0.00646545 Ha          -0.17593388 eV
  | Sum of eigenvalues per atom                           :        -359.79850814 eV
  | Total energy (T->0) per atom                          :        -658.56457651 eV  <-- do not rely on this value for anything but (periodic) metals
  | Electronic free energy per atom                       :        -658.56472498 eV

  Self-consistency convergence accuracy:
  | Change of charge density      : 0.7302E-02
  | Change of sum of eigenvalues  : -.2038E+01 eV
  | Change of total energy        : 0.8503E-03 eV

  End self-consistency iteration #     7       :  max(cpu_time)    wall_clock(cpu1)
  | Time for this iteration                    :        3.348 s           3.348 s
  | Charge density update                      :        1.080 s           1.080 s
  | Density mixing                             :        0.016 s           0.016 s
  | Hartree multipole update                   :        0.006 s           0.006 s
  | Hartree multipole summation                :        0.513 s           0.513 s
  | Integration                                :        1.640 s           1.640 s
  | Solution of K.-S. eqns.                    :        0.092 s           0.093 s
  | Total energy evaluation                    :        0.001 s           0.000 s
------------------------------------------------------------

------------------------------------------------------------
          Begin self-consistency iteration #    8

  Date     :  20150727, Time     :  122446.968
------------------------------------------------------------
  Evaluating new KS density.
  Integration grid: deviation in total charge (<rho> - N_e) =   4.689582E-13
  Pulay mixing of updated and previous charge densities.

  Evaluating partitioned Hartree potential by multipole expansion.
  | Analytical far-field extrapolation by fixed multipoles:
  | Hartree multipole sum: apparent total charge =  -0.237415E-05
  Summing up the Hartree potential.
  Time summed over all CPUs for potential: real work        4.066 s, elapsed        4.099 s
  | RMS charge density error from multipole expansion :   0.200618E-01

  Integrating Hamiltonian matrix: batch-based integration.
  Time summed over all CPUs for integration: real work       12.704 s, elapsed       13.151 s

  Updating Kohn-Sham eigenvalues, eigenvectors, occupation numbers, and Fermi level.
  Solving generalized eigenproblem
  Updating Kohn-Sham eigenvalues and eigenfunctions.
  Solving real generalised eigenvalue problem by standard LAPACK (fast)
  Determining occupation numbers for Kohn-Sham eigenstates.
  | Chemical potential (Fermi level) in eV                 : -.18369773E+01
  | Error in electron count due to remaining E_F inaccuracy: 0.13660895E-09
  | Maximum occupation number of highest empty state:  0.00E+00

  Highest occupied state (VBM) at     -1.83697732 eV
  | Occupation number:      1.00000000

  Lowest unoccupied state (CBM) at    -1.19520927 eV
  | Occupation number:      0.00000000

  Overall HOMO-LUMO gap:      0.64176804 eV.

  Total energy components:
  | Sum of eigenvalues            :        -251.24997872 Ha       -6836.85977665 eV
  | XC energy correction          :         -56.21920682 Ha       -1529.80245302 eV
  | XC potential correction       :          71.87099193 Ha        1955.70919593 eV
  | Free-atom electrostatic energy:        -214.29564846 Ha       -5831.28128701 eV
  | Hartree energy correction     :          -9.94032051 Ha        -270.48988345 eV
  | van der Waals energy corr.    :           0.00000000 Ha           0.00000000 eV
  | Entropy correction            :          -0.00010367 Ha          -0.00282095 eV
  | ---------------------------
  | Total energy                  :        -459.83416258 Ha      -12512.72420421 eV
  | Total energy, T -> 0          :        -459.83426625 Ha      -12512.72702516 eV  <-- do not rely on this value for anything but (periodic) metals
  | Electronic free energy        :        -459.83436992 Ha      -12512.72984611 eV

  Derived energy quantities:
  | Kinetic energy                :         458.76224236 Ha       12483.55577096 eV
  | Electrostatic energy          :        -862.37719812 Ha      -23466.47752215 eV
  | Energy correction for multipole
  | error in Hartree potential    :          -0.00667615 Ha          -0.18166723 eV
  | Sum of eigenvalues per atom                           :        -359.83472509 eV
  | Total energy (T->0) per atom                          :        -658.56458027 eV  <-- do not rely on this value for anything but (periodic) metals
  | Electronic free energy per atom                       :        -658.56472874 eV

  Self-consistency convergence accuracy:
  | Change of charge density      : 0.3792E-02
  | Change of sum of eigenvalues  : -.6881E+00 eV
  | Change of total energy        : -.7154E-04 eV

  End self-consistency iteration #     8       :  max(cpu_time)    wall_clock(cpu1)
  | Time for this iteration                    :        3.355 s           3.356 s
  | Charge density update                      :        1.081 s           1.081 s
  | Density mixing                             :        0.017 s           0.018 s
  | Hartree multipole update                   :        0.007 s           0.006 s
  | Hartree multipole summation                :        0.513 s           0.513 s
[...]
   Hellmann-Feynman + Multipole  : -.773968E+00 -.135774E+01 0.648957E+00
   Pulay + GGA                   : 0.484482E-01 0.974270E-01 -.670689E-01
   Van der Waals               : 0.266098E-03 -.549309E-02 0.460811E-02
   ----------------------------------------------------------------
   Total forces(  16)            : -.725254E+00 -.126581E+01 0.586496E+00
  atom #   17
   Hellmann-Feynman + Multipole  : -.170448E+01 -.121874E+02 -.896484E+00
   Pulay + GGA                   : 0.238816E+01 0.123626E+02 -.283689E+00
   Van der Waals               : -.415268E-03 -.511583E-02 -.179030E-02
   ----------------------------------------------------------------
   Total forces(  17)            : 0.683264E+00 0.170057E+00 -.118196E+01
  atom #   18
   Hellmann-Feynman + Multipole  : -.317487E+00 0.491378E+00 0.411893E+00
   Pulay + GGA                   : -.783804E-01 0.808124E-01 0.754291E-01
   Van der Waals               : 0.565596E-02 -.333142E-02 -.305458E-02
   ----------------------------------------------------------------
   Total forces(  18)            : -.390212E+00 0.568859E+00 0.484267E+00
  atom #   19
   Hellmann-Feynman + Multipole  : -.434845E+00 -.693086E+00 0.595967E+00
   Pulay + GGA                   : 0.331013E-01 0.649128E-01 -.678776E-01
   Van der Waals               : -.326688E-03 -.240820E-02 -.130138E-02
   ----------------------------------------------------------------
   Total forces(  19)            : -.402071E+00 -.630582E+00 0.526788E+00
  Timings for vdw_correction_hirshfeld (Tkatchenko-Scheffler 2009):
  | CPU time:        9.018 s, Wall clock time:        9.017 s.
  Removing unitary transformations (pure translations, rotations) from forces on atoms.
  Atomic forces before filtering:
  | Net force on center of mass :  0.856414E-02 0.122287E-02 -.264905E-02 eV/A
  | Net torque on center of mass:  0.741227E-02 -.205694E-02 -.115668E-01 eV
  Atomic forces after filtering:
  | Net force on center of mass :  0.892031E-16 -.624421E-15 0.892031E-16 eV/A
  | Net torque on center of mass:  0.286766E-14 0.849676E-15 -.660859E-15 eV
 
  Energy and forces in a compact form:
  | Total energy uncorrected      :         -0.125128616211412E+05 eV
  | Total energy corrected        :         -0.125128644420891E+05 eV  <-- do not rely on this value for anything but (periodic) metals
  | Electronic free energy        :         -0.125128672630370E+05 eV
  Total atomic forces (unitary forces cleaned) [eV/Ang]:
  |   1          0.202912717134760E+00          0.144838225195623E+01         -0.184104244457555E+01
  |   2          0.479801389539865E+00         -0.101448456289696E+01          0.374589220764494E+00
  |   3         -0.365088513579637E+00         -0.181476123957040E+00          0.312673355628886E-01
  |   4         -0.197241395843333E+00         -0.148484050383228E+00          0.136961863312133E+01
  |   5         -0.650480225901087E+00         -0.221440428075465E+01         -0.147397061823187E+01
  |   6          0.108118429008468E+00          0.156094348224894E+01          0.131116896805397E+01
  |   7          0.376138256005916E+00          0.508911572406570E+00          0.135853011094634E+00
  |   8         -0.474180106545321E+00          0.326759856058336E+00          0.226888741881815E+01
  |   9         -0.217341014551892E+00          0.190713712295337E+00         -0.194544271776129E+01
  |  10          0.568939014982181E+00         -0.709228015533028E+00          0.101943925620775E+00
  |  11          0.141024083353713E+01          0.736149265306890E+00         -0.228995013551941E+01
  |  12         -0.257498524852928E+00         -0.189626517328644E+00          0.292175176497756E+00
  |  13         -0.799560705578085E+00         -0.448577148151113E+00          0.176036177034033E+01
  |  14          0.491565576848265E+00          0.170426183419346E+01         -0.710823312488223E+00
  |  15          0.160909638136788E+00         -0.411532507310197E+00          0.199750224975166E+00
  |  16         -0.726164696128642E+00         -0.126597885386806E+01          0.586393620276073E+00
  |  17          0.682636000333235E+00          0.169843521407103E+00         -0.118188989698045E+01
  |  18         -0.390917243816844E+00          0.568619678002706E+00          0.484301779601000E+00
  |  19         -0.402789428728836E+00         -0.630793113692647E+00          0.526808040830221E+00
 
  ------------------------------------ 
  Start decomposition of the XC Energy 
  ------------------------------------ 
  Hartree-Fock part   :          0.000000000 Ha              0.000000000 eV
  ------------------------------------ 
  X Energy            :        -54.226099419 Ha          -1475.567241213 eV
  C Energy GGA        :         -1.992939277 Ha            -54.230636964 eV
  Total XC Energy     :        -56.219038696 Ha          -1529.797878178 eV
  LDA X and C from self-consistent density 
  X Energy LDA        :        -48.896409368 Ha          -1330.538995974 eV
  C Energy LDA        :         -4.002795519 Ha           -108.921607937 eV
  ------------------------------------ 
  End decomposition of the XC Energy 
  ------------------------------------ 
  Performing Hirshfeld analysis of fragment charges and moments.
  ----------------------------------------------------------------------
  | Atom     1: O
  |   Hirshfeld charge        :     -0.12605071
  |   Free atom volume        :     23.95238533
  |   Hirshfeld volume        :     23.11799614
  |   Hirshfeld dipole vector :      0.00822076       0.02242105       0.04394459
  |   Hirshfeld dipole moment :      0.05001411
  |   Hirshfeld second moments:      0.05872277      -0.00182198      -0.00706818
  |                                 -0.00182198       0.01636506      -0.02395086
  |                                 -0.00706818      -0.02395086       0.02767237
  ----------------------------------------------------------------------
  | Atom     2: H
  |   Hirshfeld charge        :      0.05123693
  |   Free atom volume        :     10.44207651
  |   Hirshfeld volume        :     14.28909486
  |   Hirshfeld dipole vector :      0.01877322      -0.00582859       0.04617251
  |   Hirshfeld dipole moment :      0.05018274
  |   Hirshfeld second moments:     -0.05143489       0.01594864      -0.00964256
  |                                  0.01594864      -0.04320008       0.02604363
  |                                 -0.00964256       0.02604363      -0.05233361
  ----------------------------------------------------------------------
  | Atom     3: H
  |   Hirshfeld charge        :      0.10927562
  |   Free atom volume        :     10.44207651
  |   Hirshfeld volume        :     12.33025098
  |   Hirshfeld dipole vector :      0.02649069       0.01500480       0.03174035
  |   Hirshfeld dipole moment :      0.04398126
  |   Hirshfeld second moments:     -0.01497892      -0.00580344       0.00632543
  |                                 -0.00580344       0.00922120       0.00862354
  |                                  0.00632543       0.00862354       0.00852104
  ----------------------------------------------------------------------
  | Atom     4: H
  |   Hirshfeld charge        :      0.10026067
  |   Free atom volume        :     10.44207651
  |   Hirshfeld volume        :     10.14102878
  |   Hirshfeld dipole vector :     -0.00675013       0.00477490       0.02469237
  |   Hirshfeld dipole moment :      0.02603992
  |   Hirshfeld second moments:      0.04636966       0.01187609       0.00348336
  |                                  0.01187609       0.05012546       0.00403193
  |                                  0.00348336       0.00403193       0.00842229
  ----------------------------------------------------------------------
  | Atom     5: O
  |   Hirshfeld charge        :     -0.23745393
  |   Free atom volume        :     23.95238533
  |   Hirshfeld volume        :     21.93005570
  |   Hirshfeld dipole vector :     -0.02250206       0.02769917       0.00056845
  |   Hirshfeld dipole moment :      0.03569188
  |   Hirshfeld second moments:      0.03195536       0.04773818      -0.01418593
  |                                  0.04773818       0.03079831       0.00911380
  |                                 -0.01418593       0.00911380       0.05076021
  ----------------------------------------------------------------------
  | Atom     6: H
  |   Hirshfeld charge        :      0.09478638
  |   Free atom volume        :     10.44207651
  |   Hirshfeld volume        :      8.94514276
  |   Hirshfeld dipole vector :      0.01092666       0.03321402       0.02626837
  |   Hirshfeld dipole moment :      0.04373317
  |   Hirshfeld second moments:      0.06585288       0.00281597      -0.01116641
  |                                  0.00281597       0.03425907      -0.01882427
  |                                 -0.01116641      -0.01882427       0.06436302
  ----------------------------------------------------------------------
  | Atom     7: H
  |   Hirshfeld charge        :      0.13052892
  |   Free atom volume        :     10.44207651
  |   Hirshfeld volume        :      9.64474892
  |   Hirshfeld dipole vector :     -0.06907322      -0.04204939       0.02366151
  |   Hirshfeld dipole moment :      0.08425632
  |   Hirshfeld second moments:      0.04198672       0.01010275      -0.00399695
  |                                  0.01010275       0.06352535       0.01155125
  |                                 -0.00399695       0.01155125       0.06419958
  ----------------------------------------------------------------------
  | Atom     8: O
  |   Hirshfeld charge        :     -0.21080725
  |   Free atom volume        :     23.95238533
  |   Hirshfeld volume        :     21.12289825
  |   Hirshfeld dipole vector :     -0.00275940       0.00392617      -0.01359655
  |   Hirshfeld dipole moment :      0.01441858
  |   Hirshfeld second moments:      0.04169117      -0.00995476       0.00636551
  |                                 -0.00995476       0.04616729      -0.00601275
  |                                  0.00636551      -0.00601275       0.07815629
  ----------------------------------------------------------------------
  | Atom     9: H
  |   Hirshfeld charge        :      0.12742374
  |   Free atom volume        :     10.44207651
  |   Hirshfeld volume        :      8.74534363
  |   Hirshfeld dipole vector :      0.01329625      -0.00835137       0.07836829
  |   Hirshfeld dipole moment :      0.07992574
  |   Hirshfeld second moments:      0.07457983      -0.00923222      -0.00088479
  |                                 -0.00923222       0.07647528       0.00188947
  |                                 -0.00088479       0.00188947       0.06069689
  ----------------------------------------------------------------------
  | Atom    10: H
  |   Hirshfeld charge        :      0.09395071
  |   Free atom volume        :     10.44207651
  |   Hirshfeld volume        :      8.57607911
  |   Hirshfeld dipole vector :     -0.01713751       0.02189691      -0.00119497
  |   Hirshfeld dipole moment :      0.02783158
  |   Hirshfeld second moments:      0.04526470       0.01819607      -0.01612653
  |                                  0.01819607       0.05055896       0.00980735
  |                                 -0.01612653       0.00980735       0.08168433
  ----------------------------------------------------------------------
  | Atom    11: O
  |   Hirshfeld charge        :     -0.28683906
  |   Free atom volume        :     23.95238533
  |   Hirshfeld volume        :     22.34153076
  |   Hirshfeld dipole vector :     -0.01911114       0.03667101       0.04352597
  |   Hirshfeld dipole moment :      0.06003757
  |   Hirshfeld second moments:      0.04907185       0.03970900       0.01230906
  |                                  0.03970900      -0.00088392      -0.02192097
  |                                  0.01230906      -0.02192097       0.00419835
  ----------------------------------------------------------------------
  | Atom    12: H
  |   Hirshfeld charge        :      0.12699724
  |   Free atom volume        :     10.44207651
  |   Hirshfeld volume        :      8.47172322
  |   Hirshfeld dipole vector :      0.07713853       0.06042691       0.03076413
  |   Hirshfeld dipole moment :      0.10270441
  |   Hirshfeld second moments:      0.08602245       0.00681082      -0.00465297
  |                                  0.00681082       0.06336604      -0.01489031
  |                                 -0.00465297      -0.01489031       0.07796690
  ----------------------------------------------------------------------
  | Atom    13: H
  |   Hirshfeld charge        :      0.08176116
  |   Free atom volume        :     10.44207651
  |   Hirshfeld volume        :      8.75083312
  |   Hirshfeld dipole vector :     -0.03016505      -0.00828724       0.03177464
  |   Hirshfeld dipole moment :      0.04458965
  |   Hirshfeld second moments:      0.05624077       0.00252172       0.03147585
  |                                  0.00252172       0.06278265       0.00604806
  |                                  0.03147585       0.00604806       0.04724530
  ----------------------------------------------------------------------
  | Atom    14: O
  |   Hirshfeld charge        :     -0.27243632
  |   Free atom volume        :     23.95238533
  |   Hirshfeld volume        :     22.75965623
  |   Hirshfeld dipole vector :      0.03016908       0.02330155       0.03688975
  |   Hirshfeld dipole moment :      0.05304705
  |   Hirshfeld second moments:      0.01479643      -0.01411655      -0.01659442
  |                                 -0.01411655       0.02306904      -0.05548941
  |                                 -0.01659442      -0.05548941      -0.01203975
  ----------------------------------------------------------------------
  | Atom    15: H
  |   Hirshfeld charge        :      0.08632993
  |   Free atom volume        :     10.44207651
  |   Hirshfeld volume        :      9.21452021
  |   Hirshfeld dipole vector :      0.04466569      -0.00656972       0.02355183
  |   Hirshfeld dipole moment :      0.05092027
  |   Hirshfeld second moments:      0.04287230       0.02376510      -0.02144399
  |                                  0.02376510       0.06025884      -0.01345859
  |                                 -0.02144399      -0.01345859       0.04052085
  ----------------------------------------------------------------------
  | Atom    16: H
  |   Hirshfeld charge        :      0.12324636
  |   Free atom volume        :     10.44207651
  |   Hirshfeld volume        :      8.78462811
  |   Hirshfeld dipole vector :      0.03315207       0.08749160      -0.03709397
  |   Hirshfeld dipole moment :      0.10064692
  |   Hirshfeld second moments:      0.08467001      -0.01150718      -0.00066350
  |                                 -0.01150718       0.06041007      -0.01930318
  |                                 -0.00066350      -0.01930318       0.06407779
  ----------------------------------------------------------------------
  | Atom    17: O
  |   Hirshfeld charge        :     -0.23576457
  |   Free atom volume        :     23.95238533
  |   Hirshfeld volume        :     21.69721270
  |   Hirshfeld dipole vector :      0.02890869       0.02488854       0.01020619
  |   Hirshfeld dipole moment :      0.03948820
  |   Hirshfeld second moments:      0.02825233      -0.03592059      -0.03437110
  |                                 -0.03592059       0.03978844      -0.00854017
  |                                 -0.03437110      -0.00854017       0.04896668
  ----------------------------------------------------------------------
  | Atom    18: H
  |   Hirshfeld charge        :      0.13594315
  |   Free atom volume        :     10.44207651
  |   Hirshfeld volume        :      7.93349296
  |   Hirshfeld dipole vector :     -0.05031998       0.07398866       0.05291840
  |   Hirshfeld dipole moment :      0.10395566
  |   Hirshfeld second moments:      0.08685985      -0.00523680      -0.00982006
  |                                 -0.00523680       0.08479062      -0.01220836
  |                                 -0.00982006      -0.01220836       0.09099466
  ----------------------------------------------------------------------
  | Atom    19: H
  |   Hirshfeld charge        :      0.10750494
  |   Free atom volume        :     10.44207651
  |   Hirshfeld volume        :      8.78541622
  |   Hirshfeld dipole vector :      0.01989325       0.03519461      -0.02496074
  |   Hirshfeld dipole moment :      0.04751253
  |   Hirshfeld second moments:      0.05892171      -0.02493279       0.01195435
  |                                 -0.02493279       0.07619797       0.00444062
  |                                  0.01195435       0.00444062       0.03882547
  ----------------------------------------------------------------------


------------------------------------------------------------------------------
  Final output of selected total energy values:

  The following output summarizes some interesting total energy values
  at the end of a run (AFTER all relaxation, molecular dynamics, etc.).

  | Total energy of the DFT / Hartree-Fock s.c.f. calculation      :         -12512.861621141 eV
  | Final zero-broadening corrected energy (caution - metals only) :         -12512.864442089 eV
  | For reference only, the value of 1 Hartree used in FHI-aims is :             27.211384500 eV

  Before relying on these values, please be sure to understand exactly which
  total energy value is referred to by a given number. Different objects may
  all carry the same name 'total energy'. Definitions:

  Total energy of the DFT / Hartree-Fock s.c.f. calculation:
  | Note that this energy does not include ANY quantities calculated after the
  | s.c.f. cycle, in particular not ANY RPA, MP2, etc. many-body perturbation terms.

  Final zero-broadening corrected energy:
  | For metallic systems only, a broadening of the occupation numbers at the Fermi
  | level can be extrapolated back to zero broadening by an electron-gas inspired
  | formula. For all systems that are not real metals, this value can be
  | meaningless and should be avoided.

------------------------------------------------------------------------------

------------------------------------------------------------
          Leaving FHI-aims.
          Date     :  20150727, Time     :  122520.549

          Computational steps:
          | Number of self-consistency cycles          :           15

          Detailed time accounting                     :  max(cpu_time)    wall_clock(cpu1)
          | Total time                                 :       60.877 s          60.906 s
          | Preparation time                           :        0.174 s           0.511 s
          | Grid partitioning                          :        0.173 s           0.173 s
          | Preloading free-atom quantities on grid    :        0.014 s           0.014 s
          | Free-atom superposition energy             :        0.097 s           0.097 s
          | Total time for integrations                :       27.161 s          27.161 s
          | Total time for solution of K.-S. equations :        1.697 s           1.697 s
          | Total time for density & force components  :       21.048 s          21.045 s
          | Total time for mixing                      :        0.240 s           0.240 s
          | Total time for Hartree multipole update    :        0.093 s           0.096 s
          | Total time for Hartree multipole sum       :        9.417 s           9.411 s
          | Total time for total energy evaluation     :        0.007 s           0.004 s
          | Total time for scaled ZORA corrections     :        0.000 s           0.000 s
          | Total time for TS (2009) vdW correction    :        0.080 s           0.080 s

          Have a nice day.
------------------------------------------------------------
