  MPI-parallelism will be employed.
------------------------------------------------------------
          Invoking FHI-aims ...
          Version 081213
          Compiled on 2013/08/29 at 17:41:06 on host generoso.

          When using FHI-aims, please cite the following reference:

          Volker Blum, Ralf Gehrke, Felix Hanke, Paula Havu,
          Ville Havu, Xinguo Ren, Karsten Reuter, and Matthias Scheffler,
          'Ab Initio Molecular Simulations with Numeric Atom-Centered Orbitals: FHI-aims',
          Computer Physics Communications 180, 2175-2196 (2009)

          For any questions about FHI-aims, please visit the aimsclub website
          with its forums and wiki. Contributions to both the forums and the
          wiki are warmly encouraged - they are for you, and everyone is welcome there.

------------------------------------------------------------

  Date     :  20150727, Time     :  123125.406
  Time zero on CPU 1             :   0.469920000000000E-01  s.
  Internal wall clock time zero  :           207232285.406  s.

  Using        8 parallel tasks.
  Task        0 on host gen59 reporting.
  Task        1 on host gen59 reporting.
  Task        2 on host gen59 reporting.
  Task        3 on host gen59 reporting.
  Task        4 on host gen59 reporting.
  Task        5 on host gen59 reporting.
  Task        6 on host gen59 reporting.
  Task        7 on host gen59 reporting.

  Performing system and environment tests:
  | Environment variable OMP_NUM_THREADS correctly set to 1.
  | Checking for scalapack...
  | No scalapack compiled in.

  Obtaining array dimensions for all initial allocations:
  
  -----------------------------------------------------------------------
  Parsing control.in (first pass over file, find array dimensions only).
  The contents of control.in will be repeated verbatim below
  unless switched off by setting 'verbatim_writeout .false.' .
  in the first line of control.in .
  -----------------------------------------------------------------------
  
  #########################################################################################
  #
  #  Volker Blum, FHI 2008 : Test run input file control.in
  #
  #########################################################################################
  #
  #  Physical model
  #
    xc                 rpbe
    spin               none
    relativistic       atomic_zora scalar
    charge             0.
   vdw_correction_hirshfeld
  #
  #  SCF convergence
  #
    occupation_type    gaussian 0.01
    mixer              pulay
      n_max_pulay        10
      charge_mix_param   0.1
    sc_accuracy_rho    5E-5
    sc_accuracy_eev    5E-3
    sc_accuracy_etot   5E-6
    sc_iter_limit      3000
  #
  #  Eigenvalue solver
  #
    KS_method          lapack
      empty_states       8
      basis_threshold    0.e-5
  #
  #  Efficiency
  #
  #   all previous settings are now default, except stratmann still
  #   undecided. Continue to handle stratmann with care, if at all.
  #
  #  partition_type stratmann
    partition_type rho_r2
  #  hartree_partition_type stratmann
  #
  #  Oprions for large clusters (100's of atoms: memory saving / better scaling)
  #
  # for periodic systems:
  #
    density_update_method orbital
    packed_matrix_format none
  #  k_grid 6 6 6
  #  output k_eigenvalue 1
  #  distributed_spline_storage .true.
  #
  #  Relaxation
  #
  #  relax_geometry   bfgs 5.e-3
    sc_accuracy_forces 5.E-4
    final_forces_cleaned .true.
  #
  #  Output options
  #
  #  output mulliken
    output Hirshfeld
  #  output dipole
  
  #harmonic_length_scale 0.001
  
  ################################################################################
  #
  #  FHI-aims code project
  #  VB, Fritz-Haber Institut, 2007
  #
  #  Suggested "safe" defaults for H atom (to be pasted into control.in file)
  #  Basis constructed for a non-relativistic H2 molecule using the
  #  PW-LDA functional.
  #
  ################################################################################
    species        H
  #     global species definitions
      nucleus             1
      cut_pot             4.0  2.0  1.0
      cut_free_atom       finite 8.0
      logarithmic         0.00010000 100.00  1.0123
      basis_dep_cutoff    1d-4  # 1d-4 is safe default - please check 5d-4 if you wish!
      radial_base         24 7.0
      radial_multiplier   2
      angular_grids       specified
        division   0.2783  110
        division   0.3822  194
        division   0.5626  302
  #      division   0.5922  434
  #      division   0.6227  590
  #      division   0.7206  770
        outer_grid  302
      l_hartree           4
  ################################################################################
  #
  #  Definition of "minimal" basis
  #
  ################################################################################
  #     valence basis states
      valence      1  s   1.
  #     ion occupancy
      ion_occ      1  s   0.5
  ################################################################################
  #
  #  Suggested additional basis functions. For production calculations,
  #  uncomment them one after another (the most important basis functions are
  #  listed first).
  #
  ################################################################################
  #  "First tier" - improvements: -1014.90 meV to -62.69 meV
       hydro 2 s 2.1
       hydro 2 p 3.5
  #  "Second tier" - improvements: -12.89 meV to -1.83 meV
       hydro 1 s 0.85
       hydro 2 p 3.7
       hydro 2 s 1.2
       hydro 3 d 7
  #  "Third tier" - improvements: -0.25 meV to -0.12 meV
  #     hydro 4 f 11.2
  #     hydro 3 p 4.8
  #     hydro 4 d 9
  #     hydro 3 s 3.2
  
  ################################################################################
  #
  #  FHI-aims code project
  #  VB, Fritz-Haber Institut, 2007
  #
  #  Suggested "safe" defaults for O atom (to be pasted into control.in file)
  #  All values have been tested for a non-relativistic, non-spinpolarized O2
  #  molecule using the PW-LDA functional. Validity for PBE is expected.
  #
  #  Constructed for dimers: 1.0 A, 1.208 A, 1.5 A, 2.0 A, 3.0 A
  #
  ################################################################################
    species        O
  #     global species definitions
      nucleus             8
      mass                15.9994
      l_hartree           4
      cut_pot             4.0  2.0  1.0
      cut_free_atom       finite 8.0
      basis_dep_cutoff    1d-4  # 1d-4 is safe default - please check 5d-4 if you wish!
      logarithmic         0.00010000 100.00  1.0123
      radial_base         36 7.0
      radial_multiplier   2
       angular_grids specified
        division   0.4087  110
        division   0.5181  194
        division   0.6184  302
  #      division   0.7315  434
  #      division   0.7934  590
  #      division   0.9656  770
  #      division   1.4041  974
  #      outer_grid 974
        outer_grid 302
  ################################################################################
  #
  #  Definition of "minimal" basis
  #
  ################################################################################
  #     valence basis states
      valence      2  s   2.
      valence      2  p   4.
  #     ion occupancy
      ion_occ      2  s   1.
      ion_occ      2  p   3.
  ################################################################################
  #
  #  Suggested additional basis functions. For production calculations,
  #  uncomment them one after another (the most important basis functions are
  #  listed first).
  #
  ################################################################################
  #  "First tier" - improvements: -699.05 meV to -159.38 meV
       hydro 2 p 1.8
       hydro 3 d 7.6
       hydro 3 s 6.4
  #  "Second tier" - improvements: -49.91 meV to -5.39 meV
       hydro 4 f 11.6
       hydro 3 p 6.2
       hydro 3 d 5.6
       hydro 5 g 17.6
       hydro 1 s 0.75
  #  "Third tier" - improvements: -2.83 meV to -0.50 meV
  #     ionic 2 p auto
  #     hydro 4 f 10.8
  #     hydro 4 d 4.7
  #     hydro 2 s 6.8
  #  "Fourth tier" - improvements: -0.40 meV to -0.12 meV
  #     hydro 3 p 5
  #     hydro 3 s 3.3
  #     hydro 5 g 15.6
  #     hydro 4 f 17.6
  #     hydro 4 d 14
  # Further basis functions - -0.08 meV and below
  #     hydro 3 s 2.1
  #     hydro 4 d 11.6
  #     hydro 3 p 16
  #     hydro 2 s 17.2
  
  
  -----------------------------------------------------------------------
  Completed first pass over input file control.in .
  -----------------------------------------------------------------------
  
  
  -----------------------------------------------------------------------
  Parsing geometry.in (first pass over file, find array dimensions only).
  The contents of geometry.in will be repeated verbatim below
  unless switched off by setting 'verbatim_writeout .false.' .
  in the first line of geometry.in .
  -----------------------------------------------------------------------
  
  atom      -4.053030000      0.065001000     -1.525160000  O
  atom      -4.566710000      0.974813000     -1.912820000  H
  atom      -3.067820000      0.330172000     -1.477310000  H
  atom      -4.370360000     -0.049164000     -0.572274000  H
  atom      -4.581760000     -0.256435000      0.939478000  O
  atom      -4.349860000      0.471090000      1.504340000  H
  atom      -5.393870000     -0.726611000      1.228070000  H
  atom      -4.066610000      4.258280000     -0.900064000  O
  atom      -3.224110000      3.876870000     -0.569443000  H
  atom      -3.737450000      5.116530000     -1.322720000  H
  atom      -5.628340000      3.730740000      1.385610000  O
  atom      -6.090650000      4.418470000      1.860350000  H
  atom      -5.158540000      4.200260000      0.615875000  H
  
  -----------------------------------------------------------------------
  Completed first pass over input file geometry.in .
  -----------------------------------------------------------------------
  
 
  Basic array size parameters: 
  | Number of species                 :        2
  | Number of atoms                   :       13
  | Max. basis fn. angular momentum   :        4
  | Max. atomic/ionic basis occupied n:        2
  | Max. number of basis fn. types    :        2
  | Max. radial fns per species/type  :        8
  | Max. logarithmic grid size        :     1301
  | Max. radial integration grid size :       73
  | Max. angular integration grid size:      302
  | Max. angular grid division number :        8
  | Radial grid for Hartree potential :     1301
  | Number of spin channels           :        1

------------------------------------------------------------
          Reading file control.in.
------------------------------------------------------------
  XC: Using RPBE gradient-corrected functionals.
  Spin treatment: No spin polarisation.
  Scalar relativistic treatment of kinetic energy: on-site free-atom approximation to ZORA.
  Charge =   0.000000E+00: Neutral system requested explicitly.
  Using non-empirical van der Waals correction (Hirshfeld partitioning):
  Occupation type: Gaussian broadening, width =   0.100000E-01 eV.
  Using pulay charge density mixing.
  Pulay mixing - number of memorized iterations:   10
  Charge density mixing - mixing parameter:     0.1000
  Convergence accuracy of self-consistent charge density: 0.5000E-04
  Convergence accuracy of sum of eigenvalues: 0.5000E-02
  Convergence accuracy of total energy: 0.5000E-05
  Maximum number of s.-c. iterations  :  3000
  Kohn-Sham eigenvalues and eigenfunctions calculated by lapack diagonalisation (D&C).
  Number of empty states per atom:        8
  Threshold for basis singularities: 0.0000E+00
  Partition function in integrals calculations: rho / r^2
 Using packed matrix format           0
  Convergence accuracy of forces: 0.5000E-03
  Cleaning forces before final output.
  Hirshfeld charge analysis will be performed.
 
  Reading configuration options for species H                   .
  | Found nuclear charge :   1.0000
  | Found cutoff potl. onset [A], width [A], scale factor :    4.00000    2.00000    1.00000
  | Found cutoff specification for free atom: Cutoff potential begins at    8.00000 A.
  | Found logarithmic grid data [bohr] : 0.1000E-03 0.1000E+03 0.1012E+01
  | Threshold for basis-dependent cutoff potential is   0.100000E-03
  | Found data for basic radial integration grid :    24 points, outermost radius =    7.000 A
  | Found multiplier for basic radial grid :   2
  | Found angular grid specification: user-specified.
  | Specified grid contains     4 separate shells.
  | Check grid settings after all constraints further below.
  | Found l_max for Hartree potential  :   4
  | Found free-atom valence shell :  1 s   1.000
  | No ionic wave fns used. Skipping ion_occ.
  | Found hydrogenic basis function :  2 s   2.100
  | Found hydrogenic basis function :  2 p   3.500
  | Found hydrogenic basis function :  1 s   0.850
  | Found hydrogenic basis function :  2 p   3.700
  | Found hydrogenic basis function :  2 s   1.200
  | Found hydrogenic basis function :  3 d   7.000
  Species H                   : Missing cutoff potential type.
  Defaulting to exp(1/x)/(1-x)^2 type cutoff potential.
  Species H : On-site basis accuracy parameter (for Gram-Schmidt orthonormalisation) not specified.
  Using default value basis_acc =  0.1000000E-03.
  Species H                   : Using default innermost maximum threshold i_radial=  2 for radial functions.
  Species H                   : Basic radial grid will be enhanced according to radial_multiplier =   2, to contain    49 grid points.
 
  Reading configuration options for species O                   .
  | Found nuclear charge :   8.0000
  | Found atomic mass :    15.9994000000000      amu
  | Found l_max for Hartree potential  :   4
  | Found cutoff potl. onset [A], width [A], scale factor :    4.00000    2.00000    1.00000
  | Found cutoff specification for free atom: Cutoff potential begins at    8.00000 A.
  | Threshold for basis-dependent cutoff potential is   0.100000E-03
  | Found logarithmic grid data [bohr] : 0.1000E-03 0.1000E+03 0.1012E+01
  | Found data for basic radial integration grid :    36 points, outermost radius =    7.000 A
  | Found multiplier for basic radial grid :   2
  | Found angular grid specification: user-specified.
  | Specified grid contains     4 separate shells.
  | Check grid settings after all constraints further below.
  | Found free-atom valence shell :  2 s   2.000
  | Found free-atom valence shell :  2 p   4.000
  | No ionic wave fns used. Skipping ion_occ.
  | No ionic wave fns used. Skipping ion_occ.
  | Found hydrogenic basis function :  2 p   1.800
  | Found hydrogenic basis function :  3 d   7.600
  | Found hydrogenic basis function :  3 s   6.400
  | Found hydrogenic basis function :  4 f  11.600
  | Found hydrogenic basis function :  3 p   6.200
  | Found hydrogenic basis function :  3 d   5.600
  | Found hydrogenic basis function :  5 g  17.600
  | Found hydrogenic basis function :  1 s   0.750
  Species O                   : Missing cutoff potential type.
  Defaulting to exp(1/x)/(1-x)^2 type cutoff potential.
  Species O : On-site basis accuracy parameter (for Gram-Schmidt orthonormalisation) not specified.
  Using default value basis_acc =  0.1000000E-03.
  Species O                   : Using default innermost maximum threshold i_radial=  2 for radial functions.
  Species O                   : Basic radial grid will be enhanced according to radial_multiplier =   2, to contain    73 grid points.
 
  Finished reading input file 'control.in'. Consistency checks are next.
 
  Target number of points in a grid batch is not set. Defaulting to  100
  Method for grid partitioning is not set. Defaulting to parallel hash+maxmin partitioning.
  Batch size limit is not set. Defaulting to    200
  By default, will store active basis functions for each batch.
  If in need of memory, prune_basis_once .false. can be used to disable this option.
  communication_type for Hartree potential was not specified.
  Defaulting to calc_hartree .
  Pulay mixer: Number of initial linear mixing iterations not set.
  Defaulting to    0 iterations.
  Work space size for distributed Hartree potential not set.
  Defaulting to   0.200000E+03 MB.
  Algorithm-dependent basis array size parameters:
  | n_max_pulay                         :       10
  Geometry relaxation not requested: no relaxation will be performed.
  Handling of forces: Unphysical translation and rotation will be removed from forces.
  No accuracy limit for integral partition fn. given. Defaulting to 0.1000E-14.
  No threshold value for u(r) in integrations given. Defaulting to 0.1000E-05.
  No accuracy for occupation numbers given. Defaulting to 0.1000E-07.
  No threshold value for occupation numbers given. Defaulting to 0.0000E+00.
  No accuracy for fermi level given. Defaulting to 0.1000E-19.
  Maximum # of iterations to find E_F not set. Defaulting to  200.
  Will not use alltoall communication since running on < 1024 CPUs.
  Partitioning for Hartree potential was not defined. Using partition_type for integrals.
  | Reporting present value of keyword multip_moments_threshold  :       0.10000000E-09
  | This value may affect high angular momentum components of the Hartree potential in periodic systems.
  No q(lm)/r^(l+1) cutoff set for long-range Hartree potential.
  | Using default value of  0.100000E-09 .
  | Verify using the multipole_threshold keyword.
  Defaulting to new monopole extrapolation.
  Density update method: Loop over occupied states selected for charge density update.
------------------------------------------------------------


------------------------------------------------------------
          Reading geometry description geometry.in.
------------------------------------------------------------
  Input structure read successfully.
  The structure contains       13 atoms,  and a total of         41.000 electrons.

  Input geometry:
  | No unit cell requested.
  | Atomic structure:
  |       Atom                x [A]            y [A]            z [A]
  |    1: Species O             -4.053030         0.065001        -1.525160
  |    2: Species H             -4.566710         0.974813        -1.912820
  |    3: Species H             -3.067820         0.330172        -1.477310
  |    4: Species H             -4.370360        -0.049164        -0.572274
  |    5: Species O             -4.581760        -0.256435         0.939478
  |    6: Species H             -4.349860         0.471090         1.504340
  |    7: Species H             -5.393870        -0.726611         1.228070
  |    8: Species O             -4.066610         4.258280        -0.900064
  |    9: Species H             -3.224110         3.876870        -0.569443
  |   10: Species H             -3.737450         5.116530        -1.322720
  |   11: Species O             -5.628340         3.730740         1.385610
  |   12: Species H             -6.090650         4.418470         1.860350
  |   13: Species H             -5.158540         4.200260         0.615875
  |

  | The smallest distance between any two atoms is         0.94981015 AA.
  |
  | The first atom of this pair is atom number                      5 .
  | The second atom of this pair is atom number                     6 .

  Structure-dependent array size parameters: 
  | Maximum number of distinct radial functions  :       18
  | Maximum number of basis functions            :      291
  | Number of Kohn-Sham states (occupied + empty):       73
------------------------------------------------------------

------------------------------------------------------------
          Preparing all fixed parts of the calculation.
------------------------------------------------------------
  Determining machine precision:
    2.225073858507201E-308
  Setting up grids for atomic and cluster calculations.

  Creating wave function, potential, and density for free atoms.

  Species: H

  List of occupied orbitals and eigenvalues:
    n    l              occ      energy [Ha]    energy [eV]
    1    0           1.0000        -0.241408        -6.5691


  Species: O

  List of occupied orbitals and eigenvalues:
    n    l              occ      energy [Ha]    energy [eV]
    1    0           2.0000       -18.944147      -515.4965
    2    0           2.0000        -0.883529       -24.0421
    2    1           4.0000        -0.330176        -8.9845

  Creating fixed part of basis set: Ionic, confined, hydrogenic.
 
  H                    hydrogenic:
 
  List of hydrogenic basis orbitals: 
    n    l      effective z      eigenvalue [eV]  inner max. [A]     outer max. [A]     outer radius [A]   
    2    0         2.100000       -14.9965           0.193241           1.317192           5.372934
    2    1         3.500000       -41.6672           0.602363           0.602363           4.056010
    1    0         0.850000        -9.8292           0.624864           0.624864           5.372934
    2    1         3.700000       -46.5653           0.573616           0.573616           3.909951
    2    0         1.200000        -4.5995           0.334977           2.228160           5.505921
    3    2         7.000000       -74.0753           0.680692           0.680692           3.769152
 
 
  O                    hydrogenic:
 
  List of hydrogenic basis orbitals: 
    n    l      effective z      eigenvalue [eV]  inner max. [A]     outer max. [A]     outer radius [A]   
    2    1         1.800000       -11.0118           1.178546           1.178546           5.432516
    3    2         7.600000       -87.3182           0.624117           0.624117           3.541422
    3    0         6.400000       -61.9209           0.061166           1.081887           4.306510
    4    3        11.600000      -114.4238           0.731621           0.731621           3.584982
    3    1         6.200000       -58.1113           0.255677           1.030255           4.306510
    3    2         5.600000       -47.4081           0.847222           0.847222           4.413102
    5    4        17.600000      -168.5799           0.749730           0.749730           3.372413
    1    0         0.750000        -7.6499           0.705275           0.705275           5.366508
 

  Adding cutoff potential to free-atom effective potential.
  Creating atomic-like basis functions for current effective potential.

  Species H                   :

  List of atomic basis orbitals and eigenvalues:
    n    l      energy [Ha]    energy [eV]    outer radius [A]
    1    0        -0.241374        -6.5681       5.372934


  Species O                   :

  List of atomic basis orbitals and eigenvalues:
    n    l      energy [Ha]    energy [eV]    outer radius [A]
    1    0       -18.944147      -515.4965       1.415745
    2    0        -0.883529       -24.0421       5.048305
    2    1        -0.330173        -8.9845       5.301302

  Assembling full basis from fixed parts.
  | Species H :   atomic orbital   1 s accepted.
  | Species H :    hydro orbital   2 s accepted.
  | Species H :    hydro orbital   1 s accepted.
  | Species H :    hydro orbital   2 s accepted.
  | Species H :    hydro orbital   2 p accepted.
  | Species H :    hydro orbital   2 p accepted.
  | Species H :    hydro orbital   3 d accepted.
  | Species O :   atomic orbital   1 s accepted.
  | Species O :    hydro orbital   3 s accepted.
  | Species O :   atomic orbital   2 s accepted.
  | Species O :    hydro orbital   1 s accepted.
  | Species O :    hydro orbital   3 p accepted.
  | Species O :   atomic orbital   2 p accepted.
  | Species O :    hydro orbital   2 p accepted.
  | Species O :    hydro orbital   3 d accepted.
  | Species O :    hydro orbital   3 d accepted.
  | Species O :    hydro orbital   4 f accepted.
  | Species O :    hydro orbital   5 g accepted.
 
  Basis size parameters after reduction:
  | Total number of radial functions:       18
  | Total number of basis functions :      291
 
  Testing on-site integration grid accuracy.
  |  Species  Function  <phi|h_atom|phi> (log., in eV)  <phi|h_atom|phi> (rad., in eV)
           1        1                 -6.5683835025                 -6.5684759159
           1        2                 13.3711789951                 13.3708738703
           1        3                 23.6590910787                 23.6532055418
           1        4                 16.2963827186                 16.1870710655 ***
           1        5                 28.7627214838                 28.7627215090
           1        6                 59.5965249172                 59.5965950857
           1        7                 60.2220506392                 60.2220503827
           2        8               -515.4964576505               -515.4964530710
           2        9                 15.3030791347                 15.3030722972
           2       10                -21.7296094581                -21.7296135470
           2       11                 14.2969371730                 14.2969701621
           2       12                 21.0679693190                 21.0679697493
           2       13                 -2.3833606469                 -2.3833613176
           2       14                 13.7067136422                 13.7066766629
           2       15                 45.8013116808                 45.8013116965
           2       16                 52.2309815402                 52.2309831494
           2       17                 85.4120732416                 85.4120732763
           2       18                142.1019167745                142.1019167817
 * Note: Onsite integrals marked "***" above are less accurate than
 * onsite_accuracy_threshold =    0.03000 eV. Usually, this is harmless.
 * When in doubt, tighten the "radial" and/or "radial_multiplier" flags to check.

  Preparing densities etc. for the partition functions (integrals / Hartree potential).

  Preparations completed.
  max(cpu_time)          :      0.171 s.
  Wall clock time (cpu1) :      0.437 s.
------------------------------------------------------------

------------------------------------------------------------
          Begin self-consistency loop: Initialization.

          Date     :  20150727, Time     :  123125.869
------------------------------------------------------------

  Initializing index lists of integration centers etc. from given atomic structure:
  | Number of centers in hartree potential         :        13
  | Number of centers in hartree multipole         :        13
  | Number of centers in electron density summation:        13
  | Number of centers in basis integrals           :        13
  | Number of centers in integrals                 :        13
  Partitioning the integration grid into batches with parallel hashing+maxmin method.
  | Number of batches:     1666
  | Maximal batch size:     178
  | Minimal batch size:      53
  | Average batch size:     101.418
  | Standard deviation of batch sizes:      30.048

  Integration load balanced across     8 MPI tasks.
  Work distribution over tasks is as follows:
  Task     0 has      21106 integration points.
  Task     1 has      21101 integration points.
  Task     2 has      21135 integration points.
  Task     3 has      21157 integration points.
  Task     4 has      21081 integration points.
  Task     5 has      21122 integration points.
  Task     6 has      21139 integration points.
  Task     7 has      21121 integration points.
  Initializing partition tables, free-atom densities, potentials, etc. across the integration grid (initialize_grid_storage).
  | Net number of integration points:   168962
  | of which are non-zero points    :   168417
  Obtaining max. number of non-zero basis functions in each batch (get_n_compute_maxes).
  | Maximal number of non-zero basis functions:      288 in task     0
  | Maximal number of non-zero basis functions:      289 in task     1
  | Maximal number of non-zero basis functions:      288 in task     2
  | Maximal number of non-zero basis functions:      289 in task     3
  | Maximal number of non-zero basis functions:      288 in task     4
  | Maximal number of non-zero basis functions:      289 in task     5
  | Maximal number of non-zero basis functions:      289 in task     6
  | Maximal number of non-zero basis functions:      288 in task     7
  Integrating Hamiltonian matrix: batch-based integration.
  Time summed over all CPUs for integration: real work        4.711 s, elapsed        4.847 s
  Integrating overlap matrix.
  Time summed over all CPUs for integration: real work        2.477 s, elapsed        2.544 s

  Updating Kohn-Sham eigenvalues, eigenvectors, occupation numbers, and Fermi level.
  Solving generalized eigenproblem
  Updating Kohn-Sham eigenvalues and eigenfunctions.
  Transforming overlap matrix and checking for singularities.
  Overlap matrix is nonsingular:
  | Lowest eigenvalue:  0.289160E-03
  Solving real generalised eigenvalue problem by standard LAPACK (fast)
  Determining occupation numbers for Kohn-Sham eigenstates.
  | Chemical potential (Fermi level) in eV                 : -.28992891E+01
  | Error in electron count due to remaining E_F inaccuracy: 0.00000000E+00
  | Maximum occupation number of highest empty state:  0.00E+00

  Writing Kohn-Sham eigenvalues.

  State    Occupation    Eigenvalue [Ha]    Eigenvalue [eV]
      1       2.00000         -19.064908         -518.78253
      2       2.00000         -19.059128         -518.62525
      3       2.00000         -19.044610         -518.23020
      4       2.00000         -19.042493         -518.17259
      5       2.00000          -1.124556          -30.60071
      6       2.00000          -1.103383          -30.02459
      7       2.00000          -1.092165          -29.71932
      8       2.00000          -1.083997          -29.49707
      9       2.00000          -0.651143          -17.71850
     10       2.00000          -0.639671          -17.40634
     11       2.00000          -0.623211          -16.95844
     12       2.00000          -0.604573          -16.45128
     13       2.00000          -0.602216          -16.38713
     14       2.00000          -0.515480          -14.02694
     15       2.00000          -0.514752          -14.00711
     16       2.00000          -0.497953          -13.54999
     17       2.00000          -0.484594          -13.18647
     18       2.00000          -0.446112          -12.13932
     19       2.00000          -0.433396          -11.79331
     20       2.00000          -0.429326          -11.68256
     21       1.00000          -0.106547           -2.89929
     22       0.00000          -0.073913           -2.01127
     23       0.00000          -0.063314           -1.72285
     24       0.00000          -0.042059           -1.14449
     25       0.00000          -0.032431           -0.88248
     26       0.00000          -0.009792           -0.26646
     27       0.00000           0.006052            0.16467
     28       0.00000           0.034660            0.94315
     29       0.00000           0.049885            1.35744
     30       0.00000           0.064099            1.74422
     31       0.00000           0.067421            1.83461
     32       0.00000           0.088744            2.41484
     33       0.00000           0.094506            2.57163
     34       0.00000           0.096521            2.62646
     35       0.00000           0.110575            3.00890
     36       0.00000           0.115454            3.14167
     37       0.00000           0.121834            3.31528
     38       0.00000           0.123796            3.36865
     39       0.00000           0.133253            3.62601
     40       0.00000           0.146551            3.98786
     41       0.00000           0.157081            4.27438
     42       0.00000           0.180767            4.91893
     43       0.00000           0.189637            5.16029
     44       0.00000           0.215674            5.86879
     45       0.00000           0.222534            6.05546
     46       0.00000           0.237898            6.47352
     47       0.00000           0.252536            6.87184
     48       0.00000           0.267348            7.27491
     49       0.00000           0.281188            7.65153
     50       0.00000           0.306309            8.33509
     51       0.00000           0.324356            8.82616
     52       0.00000           0.341224            9.28518
     53       0.00000           0.356903            9.71184
     54       0.00000           0.359251            9.77570
     55       0.00000           0.369491           10.05436
     56       0.00000           0.380561           10.35558
     57       0.00000           0.394032           10.72216
     58       0.00000           0.407272           11.08244
     59       0.00000           0.427375           11.62946
     60       0.00000           0.431976           11.75467
     61       0.00000           0.451483           12.28547
     62       0.00000           0.476823           12.97501
     63       0.00000           0.494840           13.46529
     64       0.00000           0.503041           13.68845
     65       0.00000           0.520503           14.16362
     66       0.00000           0.540592           14.71026
     67       0.00000           0.557574           15.17237
     68       0.00000           0.579138           15.75915
     69       0.00000           0.633955           17.25080
     70       0.00000           0.646677           17.59697
     71       0.00000           0.680440           18.51571
     72       0.00000           0.722820           19.66892
     73       0.00000           0.736670           20.04582

  Highest occupied state (VBM) at     -2.89928913 eV
  | Occupation number:      1.00000000

  Lowest unoccupied state (CBM) at    -2.89928913 eV
  | Occupation number:      1.00000000

  Overall HOMO-LUMO gap:      0.00000000 eV.
  Calculating total energy contributions from superposition of free atom densities.

  Total energy components:
  | Sum of eigenvalues            :        -174.22187889 Ha       -4740.81853489 eV
  | XC energy correction          :         -36.79554818 Ha       -1001.25780952 eV
  | XC potential correction       :          47.02169973 Ha        1279.52555131 eV
  | Free-atom electrostatic energy:        -142.92482463 Ha       -3889.18235766 eV
  | Hartree energy correction     :           0.00000000 Ha           0.00000000 eV
  | van der Waals energy corr.    :           0.00000000 Ha           0.00000000 eV
  | Entropy correction            :          -0.00010367 Ha          -0.00282095 eV
  | ---------------------------
  | Total energy                  :        -306.92055198 Ha       -8351.73315076 eV
  | Total energy, T -> 0          :        -306.92065564 Ha       -8351.73597171 eV  <-- do not rely on this value for anything but (periodic) metals
  | Electronic free energy        :        -306.92075931 Ha       -8351.73879266 eV

  Derived energy quantities:
  | Kinetic energy                :         303.96594311 Ha        8271.33415293 eV
  | Electrostatic energy          :        -574.09094690 Ha      -15621.80949418 eV
  | Energy correction for multipole
  | error in Hartree potential    :           0.00000000 Ha           0.00000000 eV
  | Sum of eigenvalues per atom                           :        -364.67834884 eV
  | Total energy (T->0) per atom                          :        -642.44122859 eV  <-- do not rely on this value for anything but (periodic) metals
  | Electronic free energy per atom                       :        -642.44144559 eV
  Initialize hartree_potential_storage
  Max. number of atoms included in rho_multipole:           13

  End scf initialization - timings             :  max(cpu_time)    wall_clock(cpu1)
  | Time for scf. initialization               :        1.346 s           1.346 s
  | Boundary condition initialization          :        0.000 s           0.000 s
  | Integration                                :        0.926 s           0.927 s
  | Solution of K.-S. eqns.                    :        0.136 s           0.135 s
  | Grid partitioning                          :        0.118 s           0.117 s
  | Preloading free-atom quantities on grid    :        0.013 s           0.013 s
  | Free-atom superposition energy             :        0.052 s           0.052 s
  | Total energy evaluation                    :        0.000 s           0.000 s
------------------------------------------------------------

------------------------------------------------------------
          Begin self-consistency iteration #    1

  Date     :  20150727, Time     :  123127.215
------------------------------------------------------------
  Evaluating new KS density.
  Integration grid: deviation in total charge (<rho> - N_e) =   0.000000E+00
  Pulay mixing of updated and previous charge densities.

  Evaluating partitioned Hartree potential by multipole expansion.
  | Analytical far-field extrapolation by fixed multipoles:
  | Hartree multipole sum: apparent total charge =  -0.760329E-06
  Summing up the Hartree potential.
  Time summed over all CPUs for potential: real work        1.919 s, elapsed        1.925 s
  | RMS charge density error from multipole expansion :   0.149905E-02

  Integrating Hamiltonian matrix: batch-based integration.
  Time summed over all CPUs for integration: real work        4.708 s, elapsed        4.835 s

  Updating Kohn-Sham eigenvalues, eigenvectors, occupation numbers, and Fermi level.
  Solving generalized eigenproblem
  Updating Kohn-Sham eigenvalues and eigenfunctions.
  Solving real generalised eigenvalue problem by standard LAPACK (fast)
  Determining occupation numbers for Kohn-Sham eigenstates.
  | Chemical potential (Fermi level) in eV                 : -.27073812E+01
  | Error in electron count due to remaining E_F inaccuracy: 0.21074769E-08
  | Maximum occupation number of highest empty state:  0.00E+00

  Writing Kohn-Sham eigenvalues.

  State    Occupation    Eigenvalue [Ha]    Eigenvalue [eV]
      1       2.00000         -19.011101         -517.31838
      2       2.00000         -18.988572         -516.70533
      3       2.00000         -18.969117         -516.17593
      4       2.00000         -18.960559         -515.94305
      5       2.00000          -1.098063          -29.87981
      6       2.00000          -1.070998          -29.14333
      7       2.00000          -1.052652          -28.64411
      8       2.00000          -1.043385          -28.39195
      9       2.00000          -0.622837          -16.94825
     10       2.00000          -0.616751          -16.78265
     11       2.00000          -0.586070          -15.94778
     12       2.00000          -0.580802          -15.80443
     13       2.00000          -0.572628          -15.58201
     14       2.00000          -0.484952          -13.19621
     15       2.00000          -0.477355          -12.98948
     16       2.00000          -0.456608          -12.42493
     17       2.00000          -0.455252          -12.38805
     18       2.00000          -0.411360          -11.19366
     19       2.00000          -0.394358          -10.73102
     20       2.00000          -0.384574          -10.46480
     21       1.00000          -0.099494           -2.70738
     22       0.00000          -0.065550           -1.78370
     23       0.00000          -0.056362           -1.53368
     24       0.00000          -0.034037           -0.92619
     25       0.00000          -0.026168           -0.71208
     26       0.00000          -0.003167           -0.08617
     27       0.00000           0.013099            0.35643
     28       0.00000           0.044960            1.22342
     29       0.00000           0.055973            1.52310
     30       0.00000           0.069090            1.88005
     31       0.00000           0.073609            2.00301
     32       0.00000           0.098864            2.69022
     33       0.00000           0.101529            2.76275
     34       0.00000           0.102877            2.79943
     35       0.00000           0.116643            3.17402
     36       0.00000           0.125770            3.42237
     37       0.00000           0.129726            3.53002
     38       0.00000           0.131301            3.57288
     39       0.00000           0.146740            3.99299
     40       0.00000           0.154638            4.20792
     41       0.00000           0.166255            4.52402
     42       0.00000           0.188401            5.12665
     43       0.00000           0.196446            5.34557
     44       0.00000           0.224122            6.09867
     45       0.00000           0.229167            6.23595
     46       0.00000           0.244997            6.66671
     47       0.00000           0.258475            7.03346
     48       0.00000           0.273965            7.45496
     49       0.00000           0.288010            7.83715
     50       0.00000           0.312766            8.51079
     51       0.00000           0.331228            9.01319
     52       0.00000           0.348268            9.47686
     53       0.00000           0.364980            9.93161
     54       0.00000           0.367406            9.99764
     55       0.00000           0.379827           10.33563
     56       0.00000           0.386377           10.51386
     57       0.00000           0.402926           10.96416
     58       0.00000           0.414192           11.27073
     59       0.00000           0.433998           11.80968
     60       0.00000           0.440856           11.99629
     61       0.00000           0.460211           12.52299
     62       0.00000           0.484107           13.17323
     63       0.00000           0.506544           13.78377
     64       0.00000           0.511813           13.92715
     65       0.00000           0.529887           14.41895
     66       0.00000           0.550562           14.98155
     67       0.00000           0.567760           15.44954
     68       0.00000           0.591826           16.10441
     69       0.00000           0.643315           17.50548
     70       0.00000           0.657192           17.88312
     71       0.00000           0.691000           18.80306
     72       0.00000           0.733286           19.95372
     73       0.00000           0.743106           20.22094

  Highest occupied state (VBM) at     -2.70738121 eV
  | Occupation number:      1.00000000

  Lowest unoccupied state (CBM) at    -1.78370322 eV
  | Occupation number:      0.00000000

  Overall HOMO-LUMO gap:      0.92367799 eV.

  Total energy components:
  | Sum of eigenvalues            :        -172.57547969 Ha       -4696.01773324 eV
  | XC energy correction          :         -36.97282276 Ha       -1006.08169620 eV
  | XC potential correction       :          47.25347798 Ha        1285.83255820 eV
  | Free-atom electrostatic energy:        -142.92482463 Ha       -3889.18235766 eV
  | Hartree energy correction     :          -1.60224777 Ha         -43.59938004 eV
  | van der Waals energy corr.    :           0.00000000 Ha           0.00000000 eV
  | Entropy correction            :          -0.00010367 Ha          -0.00282095 eV
  | ---------------------------
  | Total energy                  :        -306.82189688 Ha       -8349.04860895 eV
  | Total energy, T -> 0          :        -306.82200055 Ha       -8349.05142990 eV  <-- do not rely on this value for anything but (periodic) metals
  | Electronic free energy        :        -306.82210421 Ha       -8349.05425085 eV

  Derived energy quantities:
  | Kinetic energy                :         305.04727807 Ha        8300.75877417 eV
  | Electrostatic energy          :        -574.89635218 Ha      -15643.72568692 eV
  | Energy correction for multipole
  | error in Hartree potential    :           0.00037392 Ha           0.01017492 eV
  | Sum of eigenvalues per atom                           :        -361.23213333 eV
  | Total energy (T->0) per atom                          :        -642.23472538 eV  <-- do not rely on this value for anything but (periodic) metals
  | Electronic free energy per atom                       :        -642.23494237 eV

  Self-consistency convergence accuracy:
  | Change of charge density      : 0.5701E+00
  | Change of sum of eigenvalues  : 0.4480E+02 eV
  | Change of total energy        : 0.2685E+01 eV

  End self-consistency iteration #     1       :  max(cpu_time)    wall_clock(cpu1)
  | Time for this iteration                    :        1.332 s           1.332 s
  | Charge density update                      :        0.441 s           0.441 s
  | Density mixing                             :        0.003 s           0.002 s
  | Hartree multipole update                   :        0.005 s           0.005 s
  | Hartree multipole summation                :        0.241 s           0.241 s
  | Integration                                :        0.606 s           0.605 s
  | Solution of K.-S. eqns.                    :        0.036 s           0.036 s
  | Total energy evaluation                    :        0.000 s           0.001 s
------------------------------------------------------------

------------------------------------------------------------
          Begin self-consistency iteration #    2

  Date     :  20150727, Time     :  123128.547
------------------------------------------------------------
  Evaluating new KS density.
  Integration grid: deviation in total charge (<rho> - N_e) =   2.107456E-09
  Pulay mixing of updated and previous charge densities.

  Evaluating partitioned Hartree potential by multipole expansion.
  | Analytical far-field extrapolation by fixed multipoles:
  | Hartree multipole sum: apparent total charge =  -0.239546E-05
  Summing up the Hartree potential.
  Time summed over all CPUs for potential: real work        1.918 s, elapsed        1.924 s
  | RMS charge density error from multipole expansion :   0.605867E-02

  Integrating Hamiltonian matrix: batch-based integration.
  Time summed over all CPUs for integration: real work        4.695 s, elapsed        4.826 s

  Updating Kohn-Sham eigenvalues, eigenvectors, occupation numbers, and Fermi level.
  Solving generalized eigenproblem
  Updating Kohn-Sham eigenvalues and eigenfunctions.
  Solving real generalised eigenvalue problem by standard LAPACK (fast)
  Determining occupation numbers for Kohn-Sham eigenstates.
  | Chemical potential (Fermi level) in eV                 : -.22569214E+01
  | Error in electron count due to remaining E_F inaccuracy: 0.23176483E-09
  | Maximum occupation number of highest empty state:  0.00E+00

  Highest occupied state (VBM) at     -2.25692137 eV
  | Occupation number:      1.00000000

  Lowest unoccupied state (CBM) at    -1.26440133 eV
  | Occupation number:      0.00000000

  Overall HOMO-LUMO gap:      0.99252004 eV.

  Total energy components:
  | Sum of eigenvalues            :        -168.66496279 Ha       -4589.60715403 eV
  | XC energy correction          :         -37.41466992 Ha       -1018.10496923 eV
  | XC potential correction       :          47.83005300 Ha        1301.52196288 eV
  | Free-atom electrostatic energy:        -142.92482463 Ha       -3889.18235766 eV
  | Hartree energy correction     :          -5.53605994 Ha        -150.64385570 eV
  | van der Waals energy corr.    :           0.00000000 Ha           0.00000000 eV
  | Entropy correction            :          -0.00010367 Ha          -0.00282095 eV
  | ---------------------------
  | Total energy                  :        -306.71046428 Ha       -8346.01637374 eV
  | Total energy, T -> 0          :        -306.71056795 Ha       -8346.01919469 eV  <-- do not rely on this value for anything but (periodic) metals
  | Electronic free energy        :        -306.71067162 Ha       -8346.02201563 eV

  Derived energy quantities:
  | Kinetic energy                :         307.27325464 Ha        8361.33067853 eV
  | Electrostatic energy          :        -576.56904900 Ha      -15689.24208304 eV
  | Energy correction for multipole
  | error in Hartree potential    :           0.00082882 Ha           0.02255344 eV
  | Sum of eigenvalues per atom                           :        -353.04670416 eV
  | Total energy (T->0) per atom                          :        -642.00147651 eV  <-- do not rely on this value for anything but (periodic) metals
  | Electronic free energy per atom                       :        -642.00169351 eV

  Self-consistency convergence accuracy:
  | Change of charge density      : 0.4329E+00
  | Change of sum of eigenvalues  : 0.1064E+03 eV
  | Change of total energy        : 0.3032E+01 eV

  End self-consistency iteration #     2       :  max(cpu_time)    wall_clock(cpu1)
  | Time for this iteration                    :        1.330 s           1.330 s
  | Charge density update                      :        0.439 s           0.439 s
  | Density mixing                             :        0.005 s           0.005 s
  | Hartree multipole update                   :        0.004 s           0.004 s
  | Hartree multipole summation                :        0.241 s           0.241 s
  | Integration                                :        0.605 s           0.604 s
  | Solution of K.-S. eqns.                    :        0.035 s           0.035 s
  | Total energy evaluation                    :        0.001 s           0.001 s
------------------------------------------------------------

------------------------------------------------------------
          Begin self-consistency iteration #    3

  Date     :  20150727, Time     :  123129.877
------------------------------------------------------------
  Evaluating new KS density.
  Integration grid: deviation in total charge (<rho> - N_e) =   2.317648E-10
  Pulay mixing of updated and previous charge densities.

  Evaluating partitioned Hartree potential by multipole expansion.
  | Analytical far-field extrapolation by fixed multipoles:
  | Hartree multipole sum: apparent total charge =  -0.194535E-05
  Summing up the Hartree potential.
  Time summed over all CPUs for potential: real work        1.918 s, elapsed        1.925 s
  | RMS charge density error from multipole expansion :   0.125277E-01

  Integrating Hamiltonian matrix: batch-based integration.
  Time summed over all CPUs for integration: real work        4.694 s, elapsed        4.825 s

  Updating Kohn-Sham eigenvalues, eigenvectors, occupation numbers, and Fermi level.
  Solving generalized eigenproblem
  Updating Kohn-Sham eigenvalues and eigenfunctions.
  Solving real generalised eigenvalue problem by standard LAPACK (fast)
  Determining occupation numbers for Kohn-Sham eigenstates.
  | Chemical potential (Fermi level) in eV                 : -.22885727E+01
  | Error in electron count due to remaining E_F inaccuracy: 0.00000000E+00
  | Maximum occupation number of highest empty state:  0.00E+00

  Highest occupied state (VBM) at     -2.28857266 eV
  | Occupation number:      1.00000000

  Lowest unoccupied state (CBM) at    -2.28857266 eV
  | Occupation number:      1.00000000

  Overall HOMO-LUMO gap:      0.00000000 eV.

  Total energy components:
  | Sum of eigenvalues            :        -168.95989746 Ha       -4597.63273485 eV
  | XC energy correction          :         -37.39627508 Ha       -1017.60442013 eV
  | XC potential correction       :          47.79955340 Ha        1300.69202651 eV
  | Free-atom electrostatic energy:        -142.92482463 Ha       -3889.18235766 eV
  | Hartree energy correction     :          -5.22738324 Ha        -142.24433522 eV
  | van der Waals energy corr.    :           0.00000000 Ha           0.00000000 eV
  | Entropy correction            :          -0.00010367 Ha          -0.00282095 eV
  | ---------------------------
  | Total energy                  :        -306.70882701 Ha       -8345.97182136 eV
  | Total energy, T -> 0          :        -306.70893068 Ha       -8345.97464231 eV  <-- do not rely on this value for anything but (periodic) metals
  | Electronic free energy        :        -306.70903435 Ha       -8345.97746325 eV

  Derived energy quantities:
  | Kinetic energy                :         305.75507505 Ha        8320.01891011 eV
  | Electrostatic energy          :        -575.06762698 Ha      -15648.38631134 eV
  | Energy correction for multipole
  | error in Hartree potential    :          -0.00176245 Ha          -0.04795868 eV
  | Sum of eigenvalues per atom                           :        -353.66405653 eV
  | Total energy (T->0) per atom                          :        -641.99804941 eV  <-- do not rely on this value for anything but (periodic) metals
  | Electronic free energy per atom                       :        -641.99826640 eV

  Self-consistency convergence accuracy:
  | Change of charge density      : 0.2141E+00
  | Change of sum of eigenvalues  : -.8026E+01 eV
  | Change of total energy        : 0.4455E-01 eV

  End self-consistency iteration #     3       :  max(cpu_time)    wall_clock(cpu1)
  | Time for this iteration                    :        1.326 s           1.326 s
  | Charge density update                      :        0.434 s           0.434 s
  | Density mixing                             :        0.006 s           0.006 s
  | Hartree multipole update                   :        0.004 s           0.004 s
  | Hartree multipole summation                :        0.241 s           0.241 s
  | Integration                                :        0.604 s           0.605 s
  | Solution of K.-S. eqns.                    :        0.035 s           0.035 s
  | Total energy evaluation                    :        0.001 s           0.000 s
------------------------------------------------------------

------------------------------------------------------------
          Begin self-consistency iteration #    4

  Date     :  20150727, Time     :  123131.203
------------------------------------------------------------
  Evaluating new KS density.
  Integration grid: deviation in total charge (<rho> - N_e) =  -7.105427E-15
  Pulay mixing of updated and previous charge densities.

  Evaluating partitioned Hartree potential by multipole expansion.
  | Analytical far-field extrapolation by fixed multipoles:
  | Hartree multipole sum: apparent total charge =  -0.227293E-05
  Summing up the Hartree potential.
  Time summed over all CPUs for potential: real work        1.918 s, elapsed        1.924 s
  | RMS charge density error from multipole expansion :   0.160767E-01

  Integrating Hamiltonian matrix: batch-based integration.
  Time summed over all CPUs for integration: real work        4.679 s, elapsed        4.810 s

  Updating Kohn-Sham eigenvalues, eigenvectors, occupation numbers, and Fermi level.
  Solving generalized eigenproblem
  Updating Kohn-Sham eigenvalues and eigenfunctions.
  Solving real generalised eigenvalue problem by standard LAPACK (fast)
  Determining occupation numbers for Kohn-Sham eigenstates.
  | Chemical potential (Fermi level) in eV                 : -.21687209E+01
  | Error in electron count due to remaining E_F inaccuracy: 0.36986592E-09
  | Maximum occupation number of highest empty state:  0.00E+00

  Highest occupied state (VBM) at     -2.16872091 eV
  | Occupation number:      1.00000000

  Lowest unoccupied state (CBM) at    -1.05295120 eV
  | Occupation number:      0.00000000

  Overall HOMO-LUMO gap:      1.11576972 eV.

  Total energy components:
  | Sum of eigenvalues            :        -167.88083129 Ha       -4568.26985028 eV
  | XC energy correction          :         -37.53851448 Ha       -1021.47495100 eV
  | XC potential correction       :          47.98342420 Ha        1305.69540566 eV
  | Free-atom electrostatic energy:        -142.92482463 Ha       -3889.18235766 eV
  | Hartree energy correction     :          -6.34293040 Ha        -172.59991806 eV
  | van der Waals energy corr.    :           0.00000000 Ha           0.00000000 eV
  | Entropy correction            :          -0.00010367 Ha          -0.00282095 eV
  | ---------------------------
  | Total energy                  :        -306.70367659 Ha       -8345.83167136 eV
  | Total energy, T -> 0          :        -306.70378026 Ha       -8345.83449231 eV  <-- do not rely on this value for anything but (periodic) metals
  | Electronic free energy        :        -306.70388393 Ha       -8345.83731325 eV

  Derived energy quantities:
  | Kinetic energy                :         305.90059269 Ha        8323.97864648 eV
  | Electrostatic energy          :        -575.06575481 Ha      -15648.33536684 eV
  | Energy correction for multipole
  | error in Hartree potential    :          -0.00253264 Ha          -0.06891671 eV
  | Sum of eigenvalues per atom                           :        -351.40537310 eV
  | Total energy (T->0) per atom                          :        -641.98726864 eV  <-- do not rely on this value for anything but (periodic) metals
  | Electronic free energy per atom                       :        -641.98748563 eV

  Self-consistency convergence accuracy:
  | Change of charge density      : 0.1017E+00
  | Change of sum of eigenvalues  : 0.2936E+02 eV
  | Change of total energy        : 0.1402E+00 eV

  End self-consistency iteration #     4       :  max(cpu_time)    wall_clock(cpu1)
  | Time for this iteration                    :        1.324 s           1.324 s
  | Charge density update                      :        0.433 s           0.433 s
  | Density mixing                             :        0.007 s           0.007 s
  | Hartree multipole update                   :        0.005 s           0.004 s
  | Hartree multipole summation                :        0.241 s           0.242 s
  | Integration                                :        0.602 s           0.602 s
  | Solution of K.-S. eqns.                    :        0.036 s           0.036 s
  | Total energy evaluation                    :        0.000 s           0.000 s
------------------------------------------------------------

------------------------------------------------------------
          Begin self-consistency iteration #    5

  Date     :  20150727, Time     :  123132.527
------------------------------------------------------------
  Evaluating new KS density.
  Integration grid: deviation in total charge (<rho> - N_e) =   3.698730E-10
  Pulay mixing of updated and previous charge densities.

  Evaluating partitioned Hartree potential by multipole expansion.
  | Analytical far-field extrapolation by fixed multipoles:
  | Hartree multipole sum: apparent total charge =  -0.226041E-05
  Summing up the Hartree potential.
  Time summed over all CPUs for potential: real work        1.917 s, elapsed        1.923 s
  | RMS charge density error from multipole expansion :   0.161214E-01

  Integrating Hamiltonian matrix: batch-based integration.
  Time summed over all CPUs for integration: real work        4.684 s, elapsed        4.806 s

  Updating Kohn-Sham eigenvalues, eigenvectors, occupation numbers, and Fermi level.
  Solving generalized eigenproblem
  Updating Kohn-Sham eigenvalues and eigenfunctions.
  Solving real generalised eigenvalue problem by standard LAPACK (fast)
  Determining occupation numbers for Kohn-Sham eigenstates.
  | Chemical potential (Fermi level) in eV                 : -.21593575E+01
  | Error in electron count due to remaining E_F inaccuracy: 0.93791641E-12
  | Maximum occupation number of highest empty state:  0.00E+00

  Highest occupied state (VBM) at     -2.15935752 eV
  | Occupation number:      1.00000000

  Lowest unoccupied state (CBM) at    -1.06467295 eV
  | Occupation number:      0.00000000

  Overall HOMO-LUMO gap:      1.09468456 eV.

  Total energy components:
  | Sum of eigenvalues            :        -167.92158699 Ha       -4569.37886944 eV
  | XC energy correction          :         -37.53390560 Ha       -1021.34953716 eV
  | XC potential correction       :          47.97721237 Ha        1305.52637295 eV
  | Free-atom electrostatic energy:        -142.92482463 Ha       -3889.18235766 eV
  | Hartree energy correction     :          -6.30041780 Ha        -171.44309132 eV
  | van der Waals energy corr.    :           0.00000000 Ha           0.00000000 eV
  | Entropy correction            :          -0.00010367 Ha          -0.00282095 eV
  | ---------------------------
  | Total energy                  :        -306.70352266 Ha       -8345.82748264 eV
  | Total energy, T -> 0          :        -306.70362633 Ha       -8345.83030359 eV  <-- do not rely on this value for anything but (periodic) metals
  | Electronic free energy        :        -306.70373000 Ha       -8345.83312453 eV

  Derived energy quantities:
  | Kinetic energy                :         305.92058913 Ha        8324.52277729 eV
  | Electrostatic energy          :        -575.09020619 Ha      -15649.00072277 eV
  | Energy correction for multipole
  | error in Hartree potential    :          -0.00253886 Ha          -0.06908600 eV
  | Sum of eigenvalues per atom                           :        -351.49068226 eV
  | Total energy (T->0) per atom                          :        -641.98694643 eV  <-- do not rely on this value for anything but (periodic) metals
  | Electronic free energy per atom                       :        -641.98716343 eV

  Self-consistency convergence accuracy:
  | Change of charge density      : 0.1608E-01
  | Change of sum of eigenvalues  : -.1109E+01 eV
  | Change of total energy        : 0.4189E-02 eV

  End self-consistency iteration #     5       :  max(cpu_time)    wall_clock(cpu1)
  | Time for this iteration                    :        1.325 s           1.325 s
  | Charge density update                      :        0.433 s           0.433 s
  | Density mixing                             :        0.008 s           0.008 s
  | Hartree multipole update                   :        0.004 s           0.004 s
  | Hartree multipole summation                :        0.242 s           0.241 s
  | Integration                                :        0.602 s           0.602 s
  | Solution of K.-S. eqns.                    :        0.035 s           0.035 s
  | Total energy evaluation                    :        0.000 s           0.000 s
------------------------------------------------------------

------------------------------------------------------------
          Begin self-consistency iteration #    6

  Date     :  20150727, Time     :  123133.852
------------------------------------------------------------
  Evaluating new KS density.
  Integration grid: deviation in total charge (<rho> - N_e) =   9.450218E-13
  Pulay mixing of updated and previous charge densities.

  Evaluating partitioned Hartree potential by multipole expansion.
  | Analytical far-field extrapolation by fixed multipoles:
  | Hartree multipole sum: apparent total charge =  -0.222584E-05
  Summing up the Hartree potential.
  Time summed over all CPUs for potential: real work        1.918 s, elapsed        1.925 s
  | RMS charge density error from multipole expansion :   0.162313E-01

  Integrating Hamiltonian matrix: batch-based integration.
  Time summed over all CPUs for integration: real work        4.681 s, elapsed        4.804 s

  Updating Kohn-Sham eigenvalues, eigenvectors, occupation numbers, and Fermi level.
  Solving generalized eigenproblem
  Updating Kohn-Sham eigenvalues and eigenfunctions.
  Solving real generalised eigenvalue problem by standard LAPACK (fast)
  Determining occupation numbers for Kohn-Sham eigenstates.
  | Chemical potential (Fermi level) in eV                 : -.21609326E+01
  | Error in electron count due to remaining E_F inaccuracy: 0.00000000E+00
  | Maximum occupation number of highest empty state:  0.00E+00

  Highest occupied state (VBM) at     -2.16093258 eV
  | Occupation number:      1.00000000

  Lowest unoccupied state (CBM) at    -2.16093258 eV
  | Occupation number:      1.00000000

  Overall HOMO-LUMO gap:      0.00000000 eV.

  Total energy components:
  | Sum of eigenvalues            :        -167.95290526 Ha       -4570.23108288 eV
  | XC energy correction          :         -37.53095707 Ha       -1021.26930337 eV
  | XC potential correction       :          47.97317566 Ha        1305.41652862 eV
  | Free-atom electrostatic energy:        -142.92482463 Ha       -3889.18235766 eV
  | Hartree energy correction     :          -6.26799471 Ha        -170.56081408 eV
  | van der Waals energy corr.    :           0.00000000 Ha           0.00000000 eV
  | Entropy correction            :          -0.00010367 Ha          -0.00282095 eV
  | ---------------------------
  | Total energy                  :        -306.70350600 Ha       -8345.82702938 eV
  | Total energy, T -> 0          :        -306.70360967 Ha       -8345.82985033 eV  <-- do not rely on this value for anything but (periodic) metals
  | Electronic free energy        :        -306.70371334 Ha       -8345.83267128 eV

  Derived energy quantities:
  | Kinetic energy                :         305.91047021 Ha        8324.24742752 eV
  | Electrostatic energy          :        -575.08301915 Ha      -15648.80515353 eV
  | Energy correction for multipole
  | error in Hartree potential    :          -0.00258314 Ha          -0.07029080 eV
  | Sum of eigenvalues per atom                           :        -351.55623714 eV
  | Total energy (T->0) per atom                          :        -641.98691156 eV  <-- do not rely on this value for anything but (periodic) metals
  | Electronic free energy per atom                       :        -641.98712856 eV

  Self-consistency convergence accuracy:
  | Change of charge density      : 0.8642E-02
  | Change of sum of eigenvalues  : -.8522E+00 eV
  | Change of total energy        : 0.4533E-03 eV

  End self-consistency iteration #     6       :  max(cpu_time)    wall_clock(cpu1)
  | Time for this iteration                    :        1.327 s           1.327 s
  | Charge density update                      :        0.434 s           0.435 s
  | Density mixing                             :        0.010 s           0.009 s
  | Hartree multipole update                   :        0.004 s           0.004 s
  | Hartree multipole summation                :        0.241 s           0.242 s
  | Integration                                :        0.602 s           0.601 s
  | Solution of K.-S. eqns.                    :        0.035 s           0.036 s
  | Total energy evaluation                    :        0.000 s           0.000 s
------------------------------------------------------------

------------------------------------------------------------
          Begin self-consistency iteration #    7

  Date     :  20150727, Time     :  123135.179
------------------------------------------------------------
  Evaluating new KS density.
  Integration grid: deviation in total charge (<rho> - N_e) =   1.421085E-14
  Pulay mixing of updated and previous charge densities.

  Evaluating partitioned Hartree potential by multipole expansion.
  | Analytical far-field extrapolation by fixed multipoles:
  | Hartree multipole sum: apparent total charge =  -0.210948E-05
  Summing up the Hartree potential.
  Time summed over all CPUs for potential: real work        1.917 s, elapsed        1.924 s
  | RMS charge density error from multipole expansion :   0.163365E-01

  Integrating Hamiltonian matrix: batch-based integration.
  Time summed over all CPUs for integration: real work        4.680 s, elapsed        4.819 s

  Updating Kohn-Sham eigenvalues, eigenvectors, occupation numbers, and Fermi level.
  Solving generalized eigenproblem
  Updating Kohn-Sham eigenvalues and eigenfunctions.
  Solving real generalised eigenvalue problem by standard LAPACK (fast)
  Determining occupation numbers for Kohn-Sham eigenstates.
  | Chemical potential (Fermi level) in eV                 : -.21725453E+01
  | Error in electron count due to remaining E_F inaccuracy: 0.85265128E-13
  | Maximum occupation number of highest empty state:  0.00E+00

  Highest occupied state (VBM) at     -2.17254531 eV
  | Occupation number:      1.00000000

  Lowest unoccupied state (CBM) at    -1.08412331 eV
  | Occupation number:      0.00000000

  Overall HOMO-LUMO gap:      1.08842200 eV.

  Total energy components:
  | Sum of eigenvalues            :        -168.00248205 Ha       -4571.58013610 eV
  | XC energy correction          :         -37.52633363 Ha       -1021.14349322 eV
  | XC potential correction       :          47.96685133 Ha        1305.24443470 eV
  | Free-atom electrostatic energy:        -142.92482463 Ha       -3889.18235766 eV
  | Hartree energy correction     :          -6.21670297 Ha        -169.16509475 eV
  | van der Waals energy corr.    :           0.00000000 Ha           0.00000000 eV
  | Entropy correction            :          -0.00010367 Ha          -0.00282095 eV
  | ---------------------------
  | Total energy                  :        -306.70349195 Ha       -8345.82664704 eV
  | Total energy, T -> 0          :        -306.70359562 Ha       -8345.82946799 eV  <-- do not rely on this value for anything but (periodic) metals
  | Electronic free energy        :        -306.70369929 Ha       -8345.83228894 eV

  Derived energy quantities:
  | Kinetic energy                :         305.93616748 Ha        8324.94668587 eV
  | Electrostatic energy          :        -575.11332581 Ha      -15649.62983969 eV
  | Energy correction for multipole
  | error in Hartree potential    :          -0.00262511 Ha          -0.07143300 eV
  | Sum of eigenvalues per atom                           :        -351.66001047 eV
  | Total energy (T->0) per atom                          :        -641.98688215 eV  <-- do not rely on this value for anything but (periodic) metals
  | Electronic free energy per atom                       :        -641.98709915 eV

  Self-consistency convergence accuracy:
  | Change of charge density      : 0.6178E-02
  | Change of sum of eigenvalues  : -.1349E+01 eV
  | Change of total energy        : 0.3823E-03 eV

  End self-consistency iteration #     7       :  max(cpu_time)    wall_clock(cpu1)
  | Time for this iteration                    :        1.330 s           1.330 s
  | Charge density update                      :        0.434 s           0.434 s
  | Density mixing                             :        0.010 s           0.010 s
  | Hartree multipole update                   :        0.005 s           0.005 s
  | Hartree multipole summation                :        0.241 s           0.241 s
  | Integration                                :        0.604 s           0.604 s
  | Solution of K.-S. eqns.                    :        0.035 s           0.035 s
  | Total energy evaluation                    :        0.000 s           0.000 s
------------------------------------------------------------

------------------------------------------------------------
          Begin self-consistency iteration #    8

  Date     :  20150727, Time     :  123136.509
------------------------------------------------------------
  Evaluating new KS density.
  Integration grid: deviation in total charge (<rho> - N_e) =   7.815970E-14
  Pulay mixing of updated and previous charge densities.

  Evaluating partitioned Hartree potential by multipole expansion.
  | Analytical far-field extrapolation by fixed multipoles:
  | Hartree multipole sum: apparent total charge =  -0.209801E-05
  Summing up the Hartree potential.
  Time summed over all CPUs for potential: real work        1.918 s, elapsed        1.925 s
  | RMS charge density error from multipole expansion :   0.163482E-01

  Integrating Hamiltonian matrix: batch-based integration.
  Time summed over all CPUs for integration: real work        4.673 s, elapsed        4.809 s

  Updating Kohn-Sham eigenvalues, eigenvectors, occupation numbers, and Fermi level.
  Solving generalized eigenproblem
  Updating Kohn-Sham eigenvalues and eigenfunctions.
  Solving real generalised eigenvalue problem by standard LAPACK (fast)
  Determining occupation numbers for Kohn-Sham eigenstates.
  | Chemical potential (Fermi level) in eV                 : -.21780437E+01
  | Error in electron count due to remaining E_F inaccuracy: 0.23441800E-08
  | Maximum occupation number of highest empty state:  0.00E+00

  Highest occupied state (VBM) at     -2.17804368 eV
  | Occupation number:      1.00000000

  Lowest unoccupied state (CBM) at    -1.08743969 eV
  | Occupation number:      0.00000000

  Overall HOMO-LUMO gap:      1.09060399 eV.

  Total energy components:
  | Sum of eigenvalues            :        -168.02474817 Ha       -4572.18602797 eV
  | XC energy correction          :         -37.52414095 Ha       -1021.08382730 eV
  | XC potential correction       :          47.96392481 Ha        1305.16480009 eV
  | Free-atom electrostatic energy:        -142.92482463 Ha       -3889.18235766 eV
  | Hartree energy correction     :          -6.19369956 Ha        -168.53914012 eV
  | van der Waals energy corr.    :           0.00000000 Ha           0.00000000 eV
  | Entropy correction            :          -0.00010367 Ha          -0.00282095 eV
  | ---------------------------
  | Total energy                  :        -306.70348850 Ha       -8345.82655296 eV
  | Total energy, T -> 0          :        -306.70359216 Ha       -8345.82937391 eV  <-- do not rely on this value for anything but (periodic) metals
  | Electronic free energy        :        -306.70369583 Ha       -8345.83219486 eV

  Derived energy quantities:
  | Kinetic energy                :         305.94281991 Ha        8325.12770751 eV
  | Electrostatic energy          :        -575.12216746 Ha      -15649.87043317 eV
  | Energy correction for multipole
  | error in Hartree potential    :          -0.00264233 Ha          -0.07190135 eV
  | Sum of eigenvalues per atom                           :        -351.70661754 eV
  | Total energy (T->0) per atom                          :        -641.98687492 eV  <-- do not rely on this value for anything but (periodic) metals
  | Electronic free energy per atom                       :        -641.98709191 eV

  Self-consistency convergence accuracy:
  | Change of charge density      : 0.2083E-02
  | Change of sum of eigenvalues  : -.6059E+00 eV
  | Change of total energy        : 0.9408E-04 eV

  End self-consistency iteration #     8       :  max(cpu_time)    wall_clock(cpu1)
  | Time for this iteration                    :        1.329 s           1.329 s
  | Charge density update                      :        0.433 s           0.433 s
  | Density mixing                             :        0.011 s           0.012 s
  | Hartree multipole update                   :        0.004 s           0.004 s
  | Hartree multipole summation                :        0.242 s           0.242 s
  | Integration                                :        0.602 s           0.602 s
  | Solution of K.-S. eqns.                    :        0.035 s           0.035 s
  | Total energy evaluation                    :        0.000 s           0.001 s
------------------------------------------------------------

------------------------------------------------------------
          Begin self-consistency iteration #    9

  Date     :  20150727, Time     :  123137.838
------------------------------------------------------------
  Evaluating new KS density.
  Integration grid: deviation in total charge (<rho> - N_e) =   2.344201E-09
  Pulay mixing of updated and previous charge densities.

  Evaluating partitioned Hartree potential by multipole expansion.
  | Analytical far-field extrapolation by fixed multipoles:
  | Hartree multipole sum: apparent total charge =  -0.209698E-05
  Summing up the Hartree potential.
  Time summed over all CPUs for potential: real work        1.918 s, elapsed        1.924 s
  | RMS charge density error from multipole expansion :   0.163432E-01

  Integrating Hamiltonian matrix: batch-based integration.
  Time summed over all CPUs for integration: real work        4.675 s, elapsed        4.801 s

  Updating Kohn-Sham eigenvalues, eigenvectors, occupation numbers, and Fermi level.
  Solving generalized eigenproblem
  Updating Kohn-Sham eigenvalues and eigenfunctions.
  Solving real generalised eigenvalue problem by standard LAPACK (fast)
  Determining occupation numbers for Kohn-Sham eigenstates.
  | Chemical potential (Fermi level) in eV                 : -.21786500E+01
  | Error in electron count due to remaining E_F inaccuracy: 0.22820998E-08
  | Maximum occupation number of highest empty state:  0.00E+00

  Highest occupied state (VBM) at     -2.17864999 eV
  | Occupation number:      1.00000000

  Lowest unoccupied state (CBM) at    -1.08739411 eV
  | Occupation number:      0.00000000

  Overall HOMO-LUMO gap:      1.09125587 eV.

  Total energy components:
  | Sum of eigenvalues            :        -168.02490061 Ha       -4572.19017598 eV
  | XC energy correction          :         -37.52411823 Ha       -1021.08320908 eV
  | XC potential correction       :          47.96389725 Ha        1305.16405029 eV
  | Free-atom electrostatic energy:        -142.92482463 Ha       -3889.18235766 eV
  | Hartree energy correction     :          -6.19354195 Ha        -168.53485145 eV
  | van der Waals energy corr.    :           0.00000000 Ha           0.00000000 eV
  | Entropy correction            :          -0.00010367 Ha          -0.00282095 eV
  | ---------------------------
  | Total energy                  :        -306.70348816 Ha       -8345.82654388 eV
  | Total energy, T -> 0          :        -306.70359183 Ha       -8345.82936482 eV  <-- do not rely on this value for anything but (periodic) metals
  | Electronic free energy        :        -306.70369550 Ha       -8345.83218577 eV

  Derived energy quantities:
  | Kinetic energy                :         305.94513514 Ha        8325.19070808 eV
  | Electrostatic energy          :        -575.12450507 Ha      -15649.93404289 eV
  | Energy correction for multipole
  | error in Hartree potential    :          -0.00264174 Ha          -0.07188550 eV
  | Sum of eigenvalues per atom                           :        -351.70693661 eV
  | Total energy (T->0) per atom                          :        -641.98687422 eV  <-- do not rely on this value for anything but (periodic) metals
  | Electronic free energy per atom                       :        -641.98709121 eV

  Self-consistency convergence accuracy:
  | Change of charge density      : 0.5787E-03
  | Change of sum of eigenvalues  : -.4148E-02 eV
  | Change of total energy        : 0.9085E-05 eV

  End self-consistency iteration #     9       :  max(cpu_time)    wall_clock(cpu1)
  | Time for this iteration                    :        1.330 s           1.330 s
  | Charge density update                      :        0.434 s           0.434 s
  | Density mixing                             :        0.013 s           0.013 s
  | Hartree multipole update                   :        0.005 s           0.004 s
  | Hartree multipole summation                :        0.241 s           0.241 s
  | Integration                                :        0.601 s           0.602 s
  | Solution of K.-S. eqns.                    :        0.035 s           0.035 s
  | Total energy evaluation                    :        0.000 s           0.000 s
------------------------------------------------------------

------------------------------------------------------------
          Begin self-consistency iteration #   10

  Date     :  20150727, Time     :  123139.168
------------------------------------------------------------
  Evaluating new KS density.
  Integration grid: deviation in total charge (<rho> - N_e) =   2.282114E-09
[...]
  | Electronic free energy        :        -306.70542625 Ha       -8345.87928203 eV

  Derived energy quantities:
  | Kinetic energy                :         305.94646188 Ha        8325.22681064 eV
  | Electrostatic energy          :        -575.12568001 Ha      -15649.96601451 eV
  | Energy correction for multipole
  | error in Hartree potential    :          -0.00265177 Ha          -0.07215835 eV
  | Sum of eigenvalues per atom                           :        -351.70428191 eV
  | Total energy (T->0) per atom                          :        -641.99049701 eV  <-- do not rely on this value for anything but (periodic) metals
  | Electronic free energy per atom                       :        -641.99071400 eV

  atomic forces [eV/Ang]:
  -----------------------
  atom #    1
   Hellmann-Feynman + Multipole  : -.184866E+01 -.675218E+01 -.860920E+01
   Pulay + GGA                   : 0.163412E+01 0.813940E+01 0.680386E+01
   Van der Waals               : 0.214155E-02 0.569152E-02 -.658473E-02
   ----------------------------------------------------------------
   Total forces(   1)            : -.212406E+00 0.139291E+01 -.181193E+01
  atom #    2
   Hellmann-Feynman + Multipole  : 0.667488E+00 -.119923E+01 0.518551E+00
   Pulay + GGA                   : -.856738E-01 0.102245E+00 -.768121E-01
   Van der Waals               : -.156936E-02 0.279288E-03 -.185007E-02
   ----------------------------------------------------------------
   Total forces(   2)            : 0.580245E+00 -.109670E+01 0.439889E+00
  atom #    3
   Hellmann-Feynman + Multipole  : -.246946E+00 -.127779E+00 0.190355E-01
   Pulay + GGA                   : 0.165106E+00 0.378143E-01 0.285961E-01
   Van der Waals               : 0.704365E-04 0.304217E-02 -.202427E-02
   ----------------------------------------------------------------
   Total forces(   3)            : -.817696E-01 -.869229E-01 0.456073E-01
  atom #    4
   Hellmann-Feynman + Multipole  : -.106496E+00 -.806278E-01 0.103676E+01
   Pulay + GGA                   : -.352310E-01 -.656920E-02 0.718043E-01
   Van der Waals               : 0.909530E-04 0.389176E-02 0.233272E-03
   ----------------------------------------------------------------
   Total forces(   4)            : -.141636E+00 -.833052E-01 0.110880E+01
  atom #    5
   Hellmann-Feynman + Multipole  : 0.725565E+01 -.553794E+01 -.807686E+01
   Pulay + GGA                   : -.749755E+01 0.403226E+01 0.702150E+01
   Van der Waals               : -.146541E-02 0.287066E-02 0.490173E-02
   ----------------------------------------------------------------
   Total forces(   5)            : -.243367E+00 -.150281E+01 -.105046E+01
  atom #    6
   Hellmann-Feynman + Multipole  : -.195997E+00 0.901120E+00 0.890498E+00
   Pulay + GGA                   : 0.534551E-01 0.781125E-01 0.106106E+00
   Van der Waals               : -.202187E-02 0.507609E-02 0.608196E-02
   ----------------------------------------------------------------
   Total forces(   6)            : -.144564E+00 0.984309E+00 0.100269E+01
  atom #    7
   Hellmann-Feynman + Multipole  : 0.355254E+00 0.581263E+00 0.222927E+00
   Pulay + GGA                   : -.117241E+00 -.716829E-01 0.452978E-01
   Van der Waals               : -.535322E-03 0.144388E-02 0.119204E-02
   ----------------------------------------------------------------
   Total forces(   7)            : 0.237477E+00 0.511024E+00 0.269417E+00
  atom #    8
   Hellmann-Feynman + Multipole  : -.125435E+02 -.552683E+01 -.155310E+01
   Pulay + GGA                   : 0.135443E+02 0.693167E+01 0.940980E+00
   Van der Waals               : 0.885569E-03 -.397440E-02 0.293040E-03
   ----------------------------------------------------------------
   Total forces(   8)            : 0.100163E+01 0.140087E+01 -.611824E+00
  atom #    9
   Hellmann-Feynman + Multipole  : -.399637E+00 -.718243E-01 -.108248E+00
   Pulay + GGA                   : 0.132686E+00 -.652082E-01 0.285080E-01
   Van der Waals               : 0.152569E-02 -.299713E-02 -.816089E-03
   ----------------------------------------------------------------
   Total forces(   9)            : -.265425E+00 -.140030E+00 -.805557E-01
  atom #   10
   Hellmann-Feynman + Multipole  : -.698990E+00 -.134093E+01 0.645119E+00
   Pulay + GGA                   : 0.500824E-01 0.104329E+00 -.736540E-01
   Van der Waals               : -.110998E-02 -.253163E-02 0.128887E-02
   ----------------------------------------------------------------
   Total forces(  10)            : -.650017E+00 -.123913E+01 0.572754E+00
  atom #   11
   Hellmann-Feynman + Multipole  : 0.119257E+01 -.152501E+02 0.147741E+01
   Pulay + GGA                   : -.222126E+00 0.153246E+02 -.274974E+01
   Van der Waals               : -.105370E-02 -.670422E-02 0.534720E-03
   ----------------------------------------------------------------
   Total forces(  11)            : 0.969389E+00 0.677304E-01 -.127179E+01
  atom #   12
   Hellmann-Feynman + Multipole  : -.260916E+00 0.460499E+00 0.251169E+00
   Pulay + GGA                   : -.706752E-01 0.913690E-01 0.846722E-01
   Van der Waals               : 0.316341E-02 -.135255E-02 -.353187E-02
   ----------------------------------------------------------------
   Total forces(  12)            : -.328428E+00 0.550516E+00 0.332309E+00
  atom #   13
   Hellmann-Feynman + Multipole  : -.750308E+00 -.813568E+00 0.111200E+01
   Pulay + GGA                   : 0.384070E-01 0.643964E-01 -.652699E-01
   Van der Waals               : -.121970E-03 -.473543E-02 0.281406E-03
   ----------------------------------------------------------------
   Total forces(  13)            : -.712023E+00 -.753907E+00 0.104701E+01
  Timings for vdw_correction_hirshfeld (Tkatchenko-Scheffler 2009):
  | CPU time:        3.582 s, Wall clock time:        3.583 s.
  Removing unitary transformations (pure translations, rotations) from forces on atoms.
  Atomic forces before filtering:
  | Net force on center of mass :  0.910052E-02 0.454668E-02 -.808515E-02 eV/A
  | Net torque on center of mass:  0.103865E-01 0.137245E-01 -.179191E-01 eV
  Atomic forces after filtering:
  | Net force on center of mass :  -.178406E-15 0.356812E-15 0.107044E-14 eV/A
  | Net torque on center of mass:  -.349311E-14 0.000000E+00 -.188817E-15 eV
 
  Energy and forces in a compact form:
  | Total energy uncorrected      :         -0.834587364013610E+04 eV
  | Total energy corrected        :         -0.834587646108402E+04 eV  <-- do not rely on this value for anything but (periodic) metals
  | Electronic free energy        :         -0.834587928203194E+04 eV
  Total atomic forces (unitary forces cleaned) [eV/Ang]:
  |   1         -0.211967189514405E+00          0.139245404006193E+01         -0.181082837972079E+01
  |   2          0.580591642465596E+00         -0.109735852736052E+01          0.440638390735950E+00
  |   3         -0.814230626951731E-01         -0.871002650289121E-01          0.470663402155555E-01
  |   4         -0.141554076959016E+00         -0.837024663622254E-01          0.110978579295737E+01
  |   5         -0.243843667696114E+00         -0.150303876416197E+01         -0.104952458864708E+01
  |   6         -0.145471347225562E+00          0.984234733659469E+00          0.100360122260592E+01
  |   7          0.237012266307925E+00          0.510620359692413E+00          0.270089799864173E+00
  |   8          0.100065630528641E+01          0.140050685604011E+01         -0.611372228229215E+00
  |   9         -0.266423714635368E+00         -0.140111092038136E+00         -0.797026462222113E-01
  |  10         -0.651050620885424E+00         -0.123946874786772E+01          0.573208630119759E+00
  |  11          0.967633706086445E+00          0.672864491422312E-01         -0.127189799364947E+01
  |  12         -0.330565854670846E+00          0.550017167429887E+00          0.331911367783156E+00
  |  13         -0.713594385864466E+00         -0.754339743206563E+00          0.104702429218689E+01
 
  ------------------------------------ 
  Start decomposition of the XC Energy 
  ------------------------------------ 
  Hartree-Fock part   :          0.000000000 Ha              0.000000000 eV
  ------------------------------------ 
  X Energy            :        -36.199104347 Ha           -985.027746948 eV
  C Energy GGA        :         -1.325165817 Ha            -36.059596583 eV
  Total XC Energy     :        -37.524270165 Ha          -1021.087343531 eV
  LDA X and C from self-consistent density 
  X Energy LDA        :        -32.615194062 Ha           -887.504586159 eV
  C Energy LDA        :         -2.676436245 Ha            -72.829535752 eV
  ------------------------------------ 
  End decomposition of the XC Energy 
  ------------------------------------ 
  Performing Hirshfeld analysis of fragment charges and moments.
  ----------------------------------------------------------------------
  | Atom     1: O
  |   Hirshfeld charge        :     -0.13093945
  |   Free atom volume        :     23.95238533
  |   Hirshfeld volume        :     23.42262424
  |   Hirshfeld dipole vector :     -0.00297266       0.01627548       0.03714929
  |   Hirshfeld dipole moment :      0.04066691
  |   Hirshfeld second moments:      0.04904371      -0.00787272      -0.00793883
  |                                 -0.00787272       0.00762289      -0.02699102
  |                                 -0.00793883      -0.02699102       0.02538025
  ----------------------------------------------------------------------
  | Atom     2: H
  |   Hirshfeld charge        :      0.06114964
  |   Free atom volume        :     10.44207651
  |   Hirshfeld volume        :     13.65762000
  |   Hirshfeld dipole vector :     -0.00782339      -0.00638490       0.03045381
  |   Hirshfeld dipole moment :      0.03208437
  |   Hirshfeld second moments:     -0.03816787       0.00353974      -0.00134252
  |                                  0.00353974      -0.03742158       0.02113472
  |                                 -0.00134252       0.02113472      -0.03499584
  ----------------------------------------------------------------------
  | Atom     3: H
  |   Hirshfeld charge        :      0.05797922
  |   Free atom volume        :     10.44207651
  |   Hirshfeld volume        :     15.18566919
  |   Hirshfeld dipole vector :     -0.02411538      -0.01228125       0.01685473
  |   Hirshfeld dipole moment :      0.03188201
  |   Hirshfeld second moments:     -0.09174495      -0.02670484      -0.00487738
  |                                 -0.02670484      -0.04725479       0.00384117
  |                                 -0.00487738       0.00384117      -0.04136981
  ----------------------------------------------------------------------
  | Atom     4: H
  |   Hirshfeld charge        :      0.09658614
  |   Free atom volume        :     10.44207651
  |   Hirshfeld volume        :     10.41068910
  |   Hirshfeld dipole vector :     -0.01911436      -0.00157672       0.02245956
  |   Hirshfeld dipole moment :      0.02953433
  |   Hirshfeld second moments:      0.03661634       0.00789237       0.00174750
  |                                  0.00789237       0.04339885       0.00190867
  |                                  0.00174750       0.00190867       0.00852806
  ----------------------------------------------------------------------
  | Atom     5: O
  |   Hirshfeld charge        :     -0.21893200
  |   Free atom volume        :     23.95238533
  |   Hirshfeld volume        :     21.86062526
  |   Hirshfeld dipole vector :     -0.03074584       0.02497889       0.00328273
  |   Hirshfeld dipole moment :      0.03974956
  |   Hirshfeld second moments:      0.02722472       0.04944093      -0.01012948
  |                                  0.04944093       0.04151739       0.01863567
  |                                 -0.01012948       0.01863567       0.05996519
  ----------------------------------------------------------------------
  | Atom     6: H
  |   Hirshfeld charge        :      0.13866415
  |   Free atom volume        :     10.44207651
  |   Hirshfeld volume        :      9.31407880
  |   Hirshfeld dipole vector :      0.01341033       0.06722523       0.05711254
  |   Hirshfeld dipole moment :      0.08922393
  |   Hirshfeld second moments:      0.05113436       0.01013307      -0.00142587
  |                                  0.01013307       0.05549954       0.00019856
  |                                 -0.00142587       0.00019856       0.07756168
  ----------------------------------------------------------------------
  | Atom     7: H
  |   Hirshfeld charge        :      0.14417859
  |   Free atom volume        :     10.44207651
  |   Hirshfeld volume        :      9.00265537
  |   Hirshfeld dipole vector :     -0.07558080      -0.04658378       0.02274835
  |   Hirshfeld dipole moment :      0.09165148
  |   Hirshfeld second moments:      0.05438968       0.01430997      -0.00155327
  |                                  0.01430997       0.07582638       0.01255024
  |                                 -0.00155327       0.01255024       0.07719940
  ----------------------------------------------------------------------
  | Atom     8: O
  |   Hirshfeld charge        :     -0.25096499
  |   Free atom volume        :     23.95238533
  |   Hirshfeld volume        :     22.58529220
  |   Hirshfeld dipole vector :      0.01568486       0.03311876       0.03863760
  |   Hirshfeld dipole moment :      0.05325158
  |   Hirshfeld second moments:      0.02831119      -0.01421442      -0.00551801
  |                                 -0.01421442       0.02528134      -0.05648535
  |                                 -0.00551801      -0.05648535      -0.00707238
  ----------------------------------------------------------------------
  | Atom     9: H
  |   Hirshfeld charge        :      0.09863213
  |   Free atom volume        :     10.44207651
  |   Hirshfeld volume        :     10.49395715
  |   Hirshfeld dipole vector :      0.05407403       0.00034407       0.04819429
  |   Hirshfeld dipole moment :      0.07243486
  |   Hirshfeld second moments:      0.03032140       0.03059883      -0.00259794
  |                                  0.03059883       0.03814956      -0.01980368
  |                                 -0.00259794      -0.01980368       0.02998339
  ----------------------------------------------------------------------
  | Atom    10: H
  |   Hirshfeld charge        :      0.13457233
  |   Free atom volume        :     10.44207651
  |   Hirshfeld volume        :      8.20884374
  |   Hirshfeld dipole vector :      0.02395259       0.09999804      -0.03750875
  |   Hirshfeld dipole moment :      0.10945428
  |   Hirshfeld second moments:      0.09369182      -0.00965570       0.00359223
  |                                 -0.00965570       0.07534806      -0.02285296
  |                                  0.00359223      -0.02285296       0.07569091
  ----------------------------------------------------------------------
  | Atom    11: O
  |   Hirshfeld charge        :     -0.33634377
  |   Free atom volume        :     23.95238533
  |   Hirshfeld volume        :     23.32761054
  |   Hirshfeld dipole vector :     -0.00504832       0.06869024      -0.01350883
  |   Hirshfeld dipole moment :      0.07018777
  |   Hirshfeld second moments:     -0.03485630      -0.02220528      -0.06056429
  |                                 -0.02220528      -0.02123838       0.00650982
  |                                 -0.06056429       0.00650982      -0.00309383
  ----------------------------------------------------------------------
  | Atom    12: H
  |   Hirshfeld charge        :      0.12092494
  |   Free atom volume        :     10.44207651
  |   Hirshfeld volume        :      7.24545466
  |   Hirshfeld dipole vector :     -0.06236894       0.08925111       0.06152250
  |   Hirshfeld dipole moment :      0.12506264
  |   Hirshfeld second moments:      0.08809095      -0.00004279      -0.01818653
  |                                 -0.00004279       0.09048886      -0.00625434
  |                                 -0.01818653      -0.00625434       0.10310741
  ----------------------------------------------------------------------
  | Atom    13: H
  |   Hirshfeld charge        :      0.08441252
  |   Free atom volume        :     10.44207651
  |   Hirshfeld volume        :      8.83006910
  |   Hirshfeld dipole vector :      0.01751160       0.04758959      -0.03691910
  |   Hirshfeld dipole moment :      0.06272516
  |   Hirshfeld second moments:      0.05038063      -0.02114815       0.00706888
  |                                 -0.02114815       0.07182740       0.00890450
  |                                  0.00706888       0.00890450       0.03196716
  ----------------------------------------------------------------------


------------------------------------------------------------------------------
  Final output of selected total energy values:

  The following output summarizes some interesting total energy values
  at the end of a run (AFTER all relaxation, molecular dynamics, etc.).

  | Total energy of the DFT / Hartree-Fock s.c.f. calculation      :          -8345.873640136 eV
  | Final zero-broadening corrected energy (caution - metals only) :          -8345.876461084 eV
  | For reference only, the value of 1 Hartree used in FHI-aims is :             27.211384500 eV

  Before relying on these values, please be sure to understand exactly which
  total energy value is referred to by a given number. Different objects may
  all carry the same name 'total energy'. Definitions:

  Total energy of the DFT / Hartree-Fock s.c.f. calculation:
  | Note that this energy does not include ANY quantities calculated after the
  | s.c.f. cycle, in particular not ANY RPA, MP2, etc. many-body perturbation terms.

  Final zero-broadening corrected energy:
  | For metallic systems only, a broadening of the occupation numbers at the Fermi
  | level can be extrapolated back to zero broadening by an electron-gas inspired
  | formula. For all systems that are not real metals, this value can be
  | meaningless and should be avoided.

------------------------------------------------------------------------------

------------------------------------------------------------
          Leaving FHI-aims.
          Date     :  20150727, Time     :  123149.924

          Computational steps:
          | Number of self-consistency cycles          :           15

          Detailed time accounting                     :  max(cpu_time)    wall_clock(cpu1)
          | Total time                                 :       24.494 s          24.518 s
          | Preparation time                           :        0.171 s           0.437 s
          | Grid partitioning                          :        0.118 s           0.117 s
          | Preloading free-atom quantities on grid    :        0.013 s           0.013 s
          | Free-atom superposition energy             :        0.052 s           0.052 s
          | Total time for integrations                :        9.966 s           9.968 s
          | Total time for solution of K.-S. equations :        0.667 s           0.666 s
          | Total time for density & force components  :        8.371 s           8.372 s
          | Total time for mixing                      :        0.160 s           0.160 s
          | Total time for Hartree multipole update    :        0.065 s           0.064 s
          | Total time for Hartree multipole sum       :        4.417 s           4.417 s
          | Total time for total energy evaluation     :        0.005 s           0.005 s
          | Total time for scaled ZORA corrections     :        0.000 s           0.000 s
          | Total time for TS (2009) vdW correction    :        0.039 s           0.039 s

          Have a nice day.
------------------------------------------------------------
