  MPI-parallelism will be employed.
------------------------------------------------------------
          Invoking FHI-aims ...
          Version 081213
          Compiled on 2013/08/29 at 17:41:06 on host generoso.

          When using FHI-aims, please cite the following reference:

          Volker Blum, Ralf Gehrke, Felix Hanke, Paula Havu,
          Ville Havu, Xinguo Ren, Karsten Reuter, and Matthias Scheffler,
          'Ab Initio Molecular Simulations with Numeric Atom-Centered Orbitals: FHI-aims',
          Computer Physics Communications 180, 2175-2196 (2009)

          For any questions about FHI-aims, please visit the aimsclub website
          with its forums and wiki. Contributions to both the forums and the
          wiki are warmly encouraged - they are for you, and everyone is welcome there.

------------------------------------------------------------

  Date     :  20150727, Time     :  122840.553
  Time zero on CPU 1             :   0.359940000000000E-01  s.
  Internal wall clock time zero  :           207232120.553  s.

  Using        8 parallel tasks.
  Task        0 on host gen59 reporting.
  Task        1 on host gen59 reporting.
  Task        2 on host gen59 reporting.
  Task        3 on host gen59 reporting.
  Task        4 on host gen59 reporting.
  Task        5 on host gen59 reporting.
  Task        6 on host gen59 reporting.
  Task        7 on host gen59 reporting.

  Performing system and environment tests:
  | Environment variable OMP_NUM_THREADS correctly set to 1.
  | Checking for scalapack...
  | No scalapack compiled in.

  Obtaining array dimensions for all initial allocations:
  
  -----------------------------------------------------------------------
  Parsing control.in (first pass over file, find array dimensions only).
  The contents of control.in will be repeated verbatim below
  unless switched off by setting 'verbatim_writeout .false.' .
  in the first line of control.in .
  -----------------------------------------------------------------------
  
  #########################################################################################
  #
  #  Volker Blum, FHI 2008 : Test run input file control.in
  #
  #########################################################################################
  #
  #  Physical model
  #
    xc                 rpbe
    spin               none
    relativistic       atomic_zora scalar
    charge             0.
   vdw_correction_hirshfeld
  #
  #  SCF convergence
  #
    occupation_type    gaussian 0.01
    mixer              pulay
      n_max_pulay        10
      charge_mix_param   0.1
    sc_accuracy_rho    5E-5
    sc_accuracy_eev    5E-3
    sc_accuracy_etot   5E-6
    sc_iter_limit      3000
  #
  #  Eigenvalue solver
  #
    KS_method          lapack
      empty_states       8
      basis_threshold    0.e-5
  #
  #  Efficiency
  #
  #   all previous settings are now default, except stratmann still
  #   undecided. Continue to handle stratmann with care, if at all.
  #
  #  partition_type stratmann
    partition_type rho_r2
  #  hartree_partition_type stratmann
  #
  #  Oprions for large clusters (100's of atoms: memory saving / better scaling)
  #
  # for periodic systems:
  #
    density_update_method orbital
    packed_matrix_format none
  #  k_grid 6 6 6
  #  output k_eigenvalue 1
  #  distributed_spline_storage .true.
  #
  #  Relaxation
  #
  #  relax_geometry   bfgs 5.e-3
    sc_accuracy_forces 5.E-4
    final_forces_cleaned .true.
  #
  #  Output options
  #
  #  output mulliken
    output Hirshfeld
  #  output dipole
  
  #harmonic_length_scale 0.001
  
  ################################################################################
  #
  #  FHI-aims code project
  #  VB, Fritz-Haber Institut, 2007
  #
  #  Suggested "safe" defaults for H atom (to be pasted into control.in file)
  #  Basis constructed for a non-relativistic H2 molecule using the
  #  PW-LDA functional.
  #
  ################################################################################
    species        H
  #     global species definitions
      nucleus             1
      cut_pot             4.0  2.0  1.0
      cut_free_atom       finite 8.0
      logarithmic         0.00010000 100.00  1.0123
      basis_dep_cutoff    1d-4  # 1d-4 is safe default - please check 5d-4 if you wish!
      radial_base         24 7.0
      radial_multiplier   2
      angular_grids       specified
        division   0.2783  110
        division   0.3822  194
        division   0.5626  302
  #      division   0.5922  434
  #      division   0.6227  590
  #      division   0.7206  770
        outer_grid  302
      l_hartree           4
  ################################################################################
  #
  #  Definition of "minimal" basis
  #
  ################################################################################
  #     valence basis states
      valence      1  s   1.
  #     ion occupancy
      ion_occ      1  s   0.5
  ################################################################################
  #
  #  Suggested additional basis functions. For production calculations,
  #  uncomment them one after another (the most important basis functions are
  #  listed first).
  #
  ################################################################################
  #  "First tier" - improvements: -1014.90 meV to -62.69 meV
       hydro 2 s 2.1
       hydro 2 p 3.5
  #  "Second tier" - improvements: -12.89 meV to -1.83 meV
       hydro 1 s 0.85
       hydro 2 p 3.7
       hydro 2 s 1.2
       hydro 3 d 7
  #  "Third tier" - improvements: -0.25 meV to -0.12 meV
  #     hydro 4 f 11.2
  #     hydro 3 p 4.8
  #     hydro 4 d 9
  #     hydro 3 s 3.2
  
  ################################################################################
  #
  #  FHI-aims code project
  #  VB, Fritz-Haber Institut, 2007
  #
  #  Suggested "safe" defaults for O atom (to be pasted into control.in file)
  #  All values have been tested for a non-relativistic, non-spinpolarized O2
  #  molecule using the PW-LDA functional. Validity for PBE is expected.
  #
  #  Constructed for dimers: 1.0 A, 1.208 A, 1.5 A, 2.0 A, 3.0 A
  #
  ################################################################################
    species        O
  #     global species definitions
      nucleus             8
      mass                15.9994
      l_hartree           4
      cut_pot             4.0  2.0  1.0
      cut_free_atom       finite 8.0
      basis_dep_cutoff    1d-4  # 1d-4 is safe default - please check 5d-4 if you wish!
      logarithmic         0.00010000 100.00  1.0123
      radial_base         36 7.0
      radial_multiplier   2
       angular_grids specified
        division   0.4087  110
        division   0.5181  194
        division   0.6184  302
  #      division   0.7315  434
  #      division   0.7934  590
  #      division   0.9656  770
  #      division   1.4041  974
  #      outer_grid 974
        outer_grid 302
  ################################################################################
  #
  #  Definition of "minimal" basis
  #
  ################################################################################
  #     valence basis states
      valence      2  s   2.
      valence      2  p   4.
  #     ion occupancy
      ion_occ      2  s   1.
      ion_occ      2  p   3.
  ################################################################################
  #
  #  Suggested additional basis functions. For production calculations,
  #  uncomment them one after another (the most important basis functions are
  #  listed first).
  #
  ################################################################################
  #  "First tier" - improvements: -699.05 meV to -159.38 meV
       hydro 2 p 1.8
       hydro 3 d 7.6
       hydro 3 s 6.4
  #  "Second tier" - improvements: -49.91 meV to -5.39 meV
       hydro 4 f 11.6
       hydro 3 p 6.2
       hydro 3 d 5.6
       hydro 5 g 17.6
       hydro 1 s 0.75
  #  "Third tier" - improvements: -2.83 meV to -0.50 meV
  #     ionic 2 p auto
  #     hydro 4 f 10.8
  #     hydro 4 d 4.7
  #     hydro 2 s 6.8
  #  "Fourth tier" - improvements: -0.40 meV to -0.12 meV
  #     hydro 3 p 5
  #     hydro 3 s 3.3
  #     hydro 5 g 15.6
  #     hydro 4 f 17.6
  #     hydro 4 d 14
  # Further basis functions - -0.08 meV and below
  #     hydro 3 s 2.1
  #     hydro 4 d 11.6
  #     hydro 3 p 16
  #     hydro 2 s 17.2
  
  
  -----------------------------------------------------------------------
  Completed first pass over input file control.in .
  -----------------------------------------------------------------------
  
  
  -----------------------------------------------------------------------
  Parsing geometry.in (first pass over file, find array dimensions only).
  The contents of geometry.in will be repeated verbatim below
  unless switched off by setting 'verbatim_writeout .false.' .
  in the first line of geometry.in .
  -----------------------------------------------------------------------
  
  atom      -4.053030000      0.065001000     -1.525160000  O
  atom      -4.566710000      0.974813000     -1.912820000  H
  atom      -3.067820000      0.330172000     -1.477310000  H
  atom      -4.370360000     -0.049164000     -0.572274000  H
  atom      -4.581760000     -0.256435000      0.939478000  O
  atom      -4.349860000      0.471090000      1.504340000  H
  atom      -5.393870000     -0.726611000      1.228070000  H
  atom      -3.818880000      2.024990000      2.187990000  O
  atom      -3.690880000      1.961360000      3.202150000  H
  atom      -4.546490000      2.751300000      2.045370000  H
  atom      -5.628340000      3.730740000      1.385610000  O
  atom      -6.090650000      4.418470000      1.860350000  H
  atom      -5.158540000      4.200260000      0.615875000  H
  
  -----------------------------------------------------------------------
  Completed first pass over input file geometry.in .
  -----------------------------------------------------------------------
  
 
  Basic array size parameters: 
  | Number of species                 :        2
  | Number of atoms                   :       13
  | Max. basis fn. angular momentum   :        4
  | Max. atomic/ionic basis occupied n:        2
  | Max. number of basis fn. types    :        2
  | Max. radial fns per species/type  :        8
  | Max. logarithmic grid size        :     1301
  | Max. radial integration grid size :       73
  | Max. angular integration grid size:      302
  | Max. angular grid division number :        8
  | Radial grid for Hartree potential :     1301
  | Number of spin channels           :        1

------------------------------------------------------------
          Reading file control.in.
------------------------------------------------------------
  XC: Using RPBE gradient-corrected functionals.
  Spin treatment: No spin polarisation.
  Scalar relativistic treatment of kinetic energy: on-site free-atom approximation to ZORA.
  Charge =   0.000000E+00: Neutral system requested explicitly.
  Using non-empirical van der Waals correction (Hirshfeld partitioning):
  Occupation type: Gaussian broadening, width =   0.100000E-01 eV.
  Using pulay charge density mixing.
  Pulay mixing - number of memorized iterations:   10
  Charge density mixing - mixing parameter:     0.1000
  Convergence accuracy of self-consistent charge density: 0.5000E-04
  Convergence accuracy of sum of eigenvalues: 0.5000E-02
  Convergence accuracy of total energy: 0.5000E-05
  Maximum number of s.-c. iterations  :  3000
  Kohn-Sham eigenvalues and eigenfunctions calculated by lapack diagonalisation (D&C).
  Number of empty states per atom:        8
  Threshold for basis singularities: 0.0000E+00
  Partition function in integrals calculations: rho / r^2
 Using packed matrix format           0
  Convergence accuracy of forces: 0.5000E-03
  Cleaning forces before final output.
  Hirshfeld charge analysis will be performed.
 
  Reading configuration options for species H                   .
  | Found nuclear charge :   1.0000
  | Found cutoff potl. onset [A], width [A], scale factor :    4.00000    2.00000    1.00000
  | Found cutoff specification for free atom: Cutoff potential begins at    8.00000 A.
  | Found logarithmic grid data [bohr] : 0.1000E-03 0.1000E+03 0.1012E+01
  | Threshold for basis-dependent cutoff potential is   0.100000E-03
  | Found data for basic radial integration grid :    24 points, outermost radius =    7.000 A
  | Found multiplier for basic radial grid :   2
  | Found angular grid specification: user-specified.
  | Specified grid contains     4 separate shells.
  | Check grid settings after all constraints further below.
  | Found l_max for Hartree potential  :   4
  | Found free-atom valence shell :  1 s   1.000
  | No ionic wave fns used. Skipping ion_occ.
  | Found hydrogenic basis function :  2 s   2.100
  | Found hydrogenic basis function :  2 p   3.500
  | Found hydrogenic basis function :  1 s   0.850
  | Found hydrogenic basis function :  2 p   3.700
  | Found hydrogenic basis function :  2 s   1.200
  | Found hydrogenic basis function :  3 d   7.000
  Species H                   : Missing cutoff potential type.
  Defaulting to exp(1/x)/(1-x)^2 type cutoff potential.
  Species H : On-site basis accuracy parameter (for Gram-Schmidt orthonormalisation) not specified.
  Using default value basis_acc =  0.1000000E-03.
  Species H                   : Using default innermost maximum threshold i_radial=  2 for radial functions.
  Species H                   : Basic radial grid will be enhanced according to radial_multiplier =   2, to contain    49 grid points.
 
  Reading configuration options for species O                   .
  | Found nuclear charge :   8.0000
  | Found atomic mass :    15.9994000000000      amu
  | Found l_max for Hartree potential  :   4
  | Found cutoff potl. onset [A], width [A], scale factor :    4.00000    2.00000    1.00000
  | Found cutoff specification for free atom: Cutoff potential begins at    8.00000 A.
  | Threshold for basis-dependent cutoff potential is   0.100000E-03
  | Found logarithmic grid data [bohr] : 0.1000E-03 0.1000E+03 0.1012E+01
  | Found data for basic radial integration grid :    36 points, outermost radius =    7.000 A
  | Found multiplier for basic radial grid :   2
  | Found angular grid specification: user-specified.
  | Specified grid contains     4 separate shells.
  | Check grid settings after all constraints further below.
  | Found free-atom valence shell :  2 s   2.000
  | Found free-atom valence shell :  2 p   4.000
  | No ionic wave fns used. Skipping ion_occ.
  | No ionic wave fns used. Skipping ion_occ.
  | Found hydrogenic basis function :  2 p   1.800
  | Found hydrogenic basis function :  3 d   7.600
  | Found hydrogenic basis function :  3 s   6.400
  | Found hydrogenic basis function :  4 f  11.600
  | Found hydrogenic basis function :  3 p   6.200
  | Found hydrogenic basis function :  3 d   5.600
  | Found hydrogenic basis function :  5 g  17.600
  | Found hydrogenic basis function :  1 s   0.750
  Species O                   : Missing cutoff potential type.
  Defaulting to exp(1/x)/(1-x)^2 type cutoff potential.
  Species O : On-site basis accuracy parameter (for Gram-Schmidt orthonormalisation) not specified.
  Using default value basis_acc =  0.1000000E-03.
  Species O                   : Using default innermost maximum threshold i_radial=  2 for radial functions.
  Species O                   : Basic radial grid will be enhanced according to radial_multiplier =   2, to contain    73 grid points.
 
  Finished reading input file 'control.in'. Consistency checks are next.
 
  Target number of points in a grid batch is not set. Defaulting to  100
  Method for grid partitioning is not set. Defaulting to parallel hash+maxmin partitioning.
  Batch size limit is not set. Defaulting to    200
  By default, will store active basis functions for each batch.
  If in need of memory, prune_basis_once .false. can be used to disable this option.
  communication_type for Hartree potential was not specified.
  Defaulting to calc_hartree .
  Pulay mixer: Number of initial linear mixing iterations not set.
  Defaulting to    0 iterations.
  Work space size for distributed Hartree potential not set.
  Defaulting to   0.200000E+03 MB.
  Algorithm-dependent basis array size parameters:
  | n_max_pulay                         :       10
  Geometry relaxation not requested: no relaxation will be performed.
  Handling of forces: Unphysical translation and rotation will be removed from forces.
  No accuracy limit for integral partition fn. given. Defaulting to 0.1000E-14.
  No threshold value for u(r) in integrations given. Defaulting to 0.1000E-05.
  No accuracy for occupation numbers given. Defaulting to 0.1000E-07.
  No threshold value for occupation numbers given. Defaulting to 0.0000E+00.
  No accuracy for fermi level given. Defaulting to 0.1000E-19.
  Maximum # of iterations to find E_F not set. Defaulting to  200.
  Will not use alltoall communication since running on < 1024 CPUs.
  Partitioning for Hartree potential was not defined. Using partition_type for integrals.
  | Reporting present value of keyword multip_moments_threshold  :       0.10000000E-09
  | This value may affect high angular momentum components of the Hartree potential in periodic systems.
  No q(lm)/r^(l+1) cutoff set for long-range Hartree potential.
  | Using default value of  0.100000E-09 .
  | Verify using the multipole_threshold keyword.
  Defaulting to new monopole extrapolation.
  Density update method: Loop over occupied states selected for charge density update.
------------------------------------------------------------


------------------------------------------------------------
          Reading geometry description geometry.in.
------------------------------------------------------------
  Input structure read successfully.
  The structure contains       13 atoms,  and a total of         41.000 electrons.

  Input geometry:
  | No unit cell requested.
  | Atomic structure:
  |       Atom                x [A]            y [A]            z [A]
  |    1: Species O             -4.053030         0.065001        -1.525160
  |    2: Species H             -4.566710         0.974813        -1.912820
  |    3: Species H             -3.067820         0.330172        -1.477310
  |    4: Species H             -4.370360        -0.049164        -0.572274
  |    5: Species O             -4.581760        -0.256435         0.939478
  |    6: Species H             -4.349860         0.471090         1.504340
  |    7: Species H             -5.393870        -0.726611         1.228070
  |    8: Species O             -3.818880         2.024990         2.187990
  |    9: Species H             -3.690880         1.961360         3.202150
  |   10: Species H             -4.546490         2.751300         2.045370
  |   11: Species O             -5.628340         3.730740         1.385610
  |   12: Species H             -6.090650         4.418470         1.860350
  |   13: Species H             -5.158540         4.200260         0.615875
  |

  | The smallest distance between any two atoms is         0.94981015 AA.
  |
  | The first atom of this pair is atom number                      5 .
  | The second atom of this pair is atom number                     6 .

  Structure-dependent array size parameters: 
  | Maximum number of distinct radial functions  :       18
  | Maximum number of basis functions            :      291
  | Number of Kohn-Sham states (occupied + empty):       73
------------------------------------------------------------

------------------------------------------------------------
          Preparing all fixed parts of the calculation.
------------------------------------------------------------
  Determining machine precision:
    2.225073858507201E-308
  Setting up grids for atomic and cluster calculations.

  Creating wave function, potential, and density for free atoms.

  Species: H

  List of occupied orbitals and eigenvalues:
    n    l              occ      energy [Ha]    energy [eV]
    1    0           1.0000        -0.241408        -6.5691


  Species: O

  List of occupied orbitals and eigenvalues:
    n    l              occ      energy [Ha]    energy [eV]
    1    0           2.0000       -18.944147      -515.4965
    2    0           2.0000        -0.883529       -24.0421
    2    1           4.0000        -0.330176        -8.9845

  Creating fixed part of basis set: Ionic, confined, hydrogenic.
 
  H                    hydrogenic:
 
  List of hydrogenic basis orbitals: 
    n    l      effective z      eigenvalue [eV]  inner max. [A]     outer max. [A]     outer radius [A]   
    2    0         2.100000       -14.9965           0.193241           1.317192           5.372934
    2    1         3.500000       -41.6672           0.602363           0.602363           4.056010
    1    0         0.850000        -9.8292           0.624864           0.624864           5.372934
    2    1         3.700000       -46.5653           0.573616           0.573616           3.909951
    2    0         1.200000        -4.5995           0.334977           2.228160           5.505921
    3    2         7.000000       -74.0753           0.680692           0.680692           3.769152
 
 
  O                    hydrogenic:
 
  List of hydrogenic basis orbitals: 
    n    l      effective z      eigenvalue [eV]  inner max. [A]     outer max. [A]     outer radius [A]   
    2    1         1.800000       -11.0118           1.178546           1.178546           5.432516
    3    2         7.600000       -87.3182           0.624117           0.624117           3.541422
    3    0         6.400000       -61.9209           0.061166           1.081887           4.306510
    4    3        11.600000      -114.4238           0.731621           0.731621           3.584982
    3    1         6.200000       -58.1113           0.255677           1.030255           4.306510
    3    2         5.600000       -47.4081           0.847222           0.847222           4.413102
    5    4        17.600000      -168.5799           0.749730           0.749730           3.372413
    1    0         0.750000        -7.6499           0.705275           0.705275           5.366508
 

  Adding cutoff potential to free-atom effective potential.
  Creating atomic-like basis functions for current effective potential.

  Species H                   :

  List of atomic basis orbitals and eigenvalues:
    n    l      energy [Ha]    energy [eV]    outer radius [A]
    1    0        -0.241374        -6.5681       5.372934


  Species O                   :

  List of atomic basis orbitals and eigenvalues:
    n    l      energy [Ha]    energy [eV]    outer radius [A]
    1    0       -18.944147      -515.4965       1.415745
    2    0        -0.883529       -24.0421       5.048305
    2    1        -0.330173        -8.9845       5.301302

  Assembling full basis from fixed parts.
  | Species H :   atomic orbital   1 s accepted.
  | Species H :    hydro orbital   2 s accepted.
  | Species H :    hydro orbital   1 s accepted.
  | Species H :    hydro orbital   2 s accepted.
  | Species H :    hydro orbital   2 p accepted.
  | Species H :    hydro orbital   2 p accepted.
  | Species H :    hydro orbital   3 d accepted.
  | Species O :   atomic orbital   1 s accepted.
  | Species O :    hydro orbital   3 s accepted.
  | Species O :   atomic orbital   2 s accepted.
  | Species O :    hydro orbital   1 s accepted.
  | Species O :    hydro orbital   3 p accepted.
  | Species O :   atomic orbital   2 p accepted.
  | Species O :    hydro orbital   2 p accepted.
  | Species O :    hydro orbital   3 d accepted.
  | Species O :    hydro orbital   3 d accepted.
  | Species O :    hydro orbital   4 f accepted.
  | Species O :    hydro orbital   5 g accepted.
 
  Basis size parameters after reduction:
  | Total number of radial functions:       18
  | Total number of basis functions :      291
 
  Testing on-site integration grid accuracy.
  |  Species  Function  <phi|h_atom|phi> (log., in eV)  <phi|h_atom|phi> (rad., in eV)
           1        1                 -6.5683835025                 -6.5684759159
           1        2                 13.3711789951                 13.3708738703
           1        3                 23.6590910787                 23.6532055418
           1        4                 16.2963827186                 16.1870710655 ***
           1        5                 28.7627214838                 28.7627215090
           1        6                 59.5965249172                 59.5965950857
           1        7                 60.2220506392                 60.2220503827
           2        8               -515.4964576505               -515.4964530710
           2        9                 15.3030791347                 15.3030722972
           2       10                -21.7296094581                -21.7296135470
           2       11                 14.2969371730                 14.2969701621
           2       12                 21.0679693190                 21.0679697493
           2       13                 -2.3833606469                 -2.3833613176
           2       14                 13.7067136422                 13.7066766629
           2       15                 45.8013116808                 45.8013116965
           2       16                 52.2309815402                 52.2309831494
           2       17                 85.4120732416                 85.4120732763
           2       18                142.1019167745                142.1019167817
 * Note: Onsite integrals marked "***" above are less accurate than
 * onsite_accuracy_threshold =    0.03000 eV. Usually, this is harmless.
 * When in doubt, tighten the "radial" and/or "radial_multiplier" flags to check.

  Preparing densities etc. for the partition functions (integrals / Hartree potential).

  Preparations completed.
  max(cpu_time)          :      0.170 s.
  Wall clock time (cpu1) :      0.572 s.
------------------------------------------------------------

------------------------------------------------------------
          Begin self-consistency loop: Initialization.

          Date     :  20150727, Time     :  122841.166
------------------------------------------------------------

  Initializing index lists of integration centers etc. from given atomic structure:
  | Number of centers in hartree potential         :        13
  | Number of centers in hartree multipole         :        13
  | Number of centers in electron density summation:        13
  | Number of centers in basis integrals           :        13
  | Number of centers in integrals                 :        13
  Partitioning the integration grid into batches with parallel hashing+maxmin method.
  | Number of batches:     1748
  | Maximal batch size:     188
  | Minimal batch size:      50
  | Average batch size:      96.660
  | Standard deviation of batch sizes:      29.415

  Integration load balanced across     8 MPI tasks.
  Work distribution over tasks is as follows:
  Task     0 has      21168 integration points.
  Task     1 has      21106 integration points.
  Task     2 has      21077 integration points.
  Task     3 has      21082 integration points.
  Task     4 has      21083 integration points.
  Task     5 has      21107 integration points.
  Task     6 has      21168 integration points.
  Task     7 has      21171 integration points.
  Initializing partition tables, free-atom densities, potentials, etc. across the integration grid (initialize_grid_storage).
  | Net number of integration points:   168962
  | of which are non-zero points    :   168442
  Obtaining max. number of non-zero basis functions in each batch (get_n_compute_maxes).
  | Maximal number of non-zero basis functions:      289 in task     0
  | Maximal number of non-zero basis functions:      289 in task     1
  | Maximal number of non-zero basis functions:      289 in task     2
  | Maximal number of non-zero basis functions:      289 in task     3
  | Maximal number of non-zero basis functions:      289 in task     4
  | Maximal number of non-zero basis functions:      289 in task     5
  | Maximal number of non-zero basis functions:      289 in task     6
  | Maximal number of non-zero basis functions:      289 in task     7
  Integrating Hamiltonian matrix: batch-based integration.
  Time summed over all CPUs for integration: real work        5.156 s, elapsed        5.293 s
  Integrating overlap matrix.
  Time summed over all CPUs for integration: real work        2.721 s, elapsed        2.796 s

  Updating Kohn-Sham eigenvalues, eigenvectors, occupation numbers, and Fermi level.
  Solving generalized eigenproblem
  Updating Kohn-Sham eigenvalues and eigenfunctions.
  Transforming overlap matrix and checking for singularities.
  Overlap matrix is nonsingular:
  | Lowest eigenvalue:  0.247233E-03
  Solving real generalised eigenvalue problem by standard LAPACK (fast)
  Determining occupation numbers for Kohn-Sham eigenstates.
  | Chemical potential (Fermi level) in eV                 : -.28175389E+01
  | Error in electron count due to remaining E_F inaccuracy: 0.12789769E-12
  | Maximum occupation number of highest empty state:  0.00E+00

  Writing Kohn-Sham eigenvalues.

  State    Occupation    Eigenvalue [Ha]    Eigenvalue [eV]
      1       2.00000         -19.064906         -518.78248
      2       2.00000         -19.059272         -518.62919
      3       2.00000         -19.050517         -518.39095
      4       2.00000         -19.032247         -517.89378
      5       2.00000          -1.124832          -30.60823
      6       2.00000          -1.104779          -30.06257
      7       2.00000          -1.098946          -29.90385
      8       2.00000          -1.063836          -28.94846
      9       2.00000          -0.654954          -17.82220
     10       2.00000          -0.639711          -17.40741
     11       2.00000          -0.628601          -17.10509
     12       2.00000          -0.602536          -16.39584
     13       2.00000          -0.602230          -16.38750
     14       2.00000          -0.522091          -14.20682
     15       2.00000          -0.515777          -14.03500
     16       2.00000          -0.489266          -13.31361
     17       2.00000          -0.482943          -13.14155
     18       2.00000          -0.446611          -12.15291
     19       2.00000          -0.438823          -11.94098
     20       2.00000          -0.424812          -11.55973
     21       1.00000          -0.103543           -2.81754
     22       0.00000          -0.078085           -2.12481
     23       0.00000          -0.058732           -1.59818
     24       0.00000          -0.038795           -1.05568
     25       0.00000          -0.030945           -0.84206
     26       0.00000          -0.007425           -0.20205
     27       0.00000           0.042573            1.15847
     28       0.00000           0.047817            1.30118
     29       0.00000           0.049938            1.35889
     30       0.00000           0.065305            1.77704
     31       0.00000           0.071407            1.94308
     32       0.00000           0.083262            2.26566
     33       0.00000           0.095151            2.58919
     34       0.00000           0.100635            2.73841
     35       0.00000           0.106717            2.90392
     36       0.00000           0.114017            3.10256
     37       0.00000           0.123101            3.34974
     38       0.00000           0.137746            3.74826
     39       0.00000           0.147170            4.00471
     40       0.00000           0.160862            4.37728
     41       0.00000           0.169496            4.61222
     42       0.00000           0.184854            5.03014
     43       0.00000           0.199430            5.42678
     44       0.00000           0.216475            5.89059
     45       0.00000           0.241444            6.57003
     46       0.00000           0.246574            6.70963
     47       0.00000           0.270469            7.35982
     48       0.00000           0.288084            7.83917
     49       0.00000           0.297220            8.08778
     50       0.00000           0.315565            8.58696
     51       0.00000           0.328947            8.95110
     52       0.00000           0.341054            9.28054
     53       0.00000           0.361501            9.83694
     54       0.00000           0.366553            9.97441
     55       0.00000           0.380193           10.34558
     56       0.00000           0.388194           10.56329
     57       0.00000           0.404216           10.99927
     58       0.00000           0.415514           11.30672
     59       0.00000           0.417788           11.36860
     60       0.00000           0.440643           11.99050
     61       0.00000           0.466645           12.69806
     62       0.00000           0.479742           13.05444
     63       0.00000           0.502722           13.67977
     64       0.00000           0.547889           14.90883
     65       0.00000           0.550945           14.99198
     66       0.00000           0.565500           15.38803
     67       0.00000           0.587675           15.99146
     68       0.00000           0.646165           17.58304
     69       0.00000           0.680332           18.51279
     70       0.00000           0.693846           18.88052
     71       0.00000           0.732521           19.93291
     72       0.00000           0.747881           20.35088
     73       0.00000           0.748812           20.37621

  Highest occupied state (VBM) at     -2.81753892 eV
  | Occupation number:      1.00000000

  Lowest unoccupied state (CBM) at    -2.12480538 eV
  | Occupation number:      0.00000000

  Overall HOMO-LUMO gap:      0.69273354 eV.
  Calculating total energy contributions from superposition of free atom densities.

  Total energy components:
  | Sum of eigenvalues            :        -174.19892276 Ha       -4740.19386666 eV
  | XC energy correction          :         -36.81758612 Ha       -1001.85749226 eV
  | XC potential correction       :          47.05719461 Ha        1280.49141591 eV
  | Free-atom electrostatic energy:        -142.94978376 Ha       -3889.86153016 eV
  | Hartree energy correction     :           0.00000000 Ha           0.00000000 eV
  | van der Waals energy corr.    :           0.00000000 Ha           0.00000000 eV
  | Entropy correction            :          -0.00010367 Ha          -0.00282095 eV
  | ---------------------------
  | Total energy                  :        -306.90909803 Ha       -8351.42147318 eV
  | Total energy, T -> 0          :        -306.90920170 Ha       -8351.42429413 eV  <-- do not rely on this value for anything but (periodic) metals
  | Electronic free energy        :        -306.90930537 Ha       -8351.42711507 eV

  Derived energy quantities:
  | Kinetic energy                :         304.02902982 Ha        8273.05082961 eV
  | Electrostatic energy          :        -574.12054174 Ha      -15622.61481052 eV
  | Energy correction for multipole
  | error in Hartree potential    :           0.00000000 Ha           0.00000000 eV
  | Sum of eigenvalues per atom                           :        -364.63029744 eV
  | Total energy (T->0) per atom                          :        -642.41725339 eV  <-- do not rely on this value for anything but (periodic) metals
  | Electronic free energy per atom                       :        -642.41747039 eV
  Initialize hartree_potential_storage
  Max. number of atoms included in rho_multipole:           13

  End scf initialization - timings             :  max(cpu_time)    wall_clock(cpu1)
  | Time for scf. initialization               :        1.441 s           1.441 s
  | Boundary condition initialization          :        0.000 s           0.000 s
  | Integration                                :        1.014 s           1.014 s
  | Solution of K.-S. eqns.                    :        0.136 s           0.136 s
  | Grid partitioning                          :        0.124 s           0.124 s
  | Preloading free-atom quantities on grid    :        0.014 s           0.013 s
  | Free-atom superposition energy             :        0.052 s           0.053 s
  | Total energy evaluation                    :        0.000 s           0.000 s
------------------------------------------------------------

------------------------------------------------------------
          Begin self-consistency iteration #    1

  Date     :  20150727, Time     :  122842.607
------------------------------------------------------------
  Evaluating new KS density.
  Integration grid: deviation in total charge (<rho> - N_e) =   1.421085E-13
  Pulay mixing of updated and previous charge densities.

  Evaluating partitioned Hartree potential by multipole expansion.
  | Analytical far-field extrapolation by fixed multipoles:
  | Hartree multipole sum: apparent total charge =  -0.780794E-06
  Summing up the Hartree potential.
  Time summed over all CPUs for potential: real work        1.920 s, elapsed        1.930 s
  | RMS charge density error from multipole expansion :   0.149066E-02

  Integrating Hamiltonian matrix: batch-based integration.
  Time summed over all CPUs for integration: real work        5.137 s, elapsed        5.261 s

  Updating Kohn-Sham eigenvalues, eigenvectors, occupation numbers, and Fermi level.
  Solving generalized eigenproblem
  Updating Kohn-Sham eigenvalues and eigenfunctions.
  Solving real generalised eigenvalue problem by standard LAPACK (fast)
  Determining occupation numbers for Kohn-Sham eigenstates.
  | Chemical potential (Fermi level) in eV                 : -.26056701E+01
  | Error in electron count due to remaining E_F inaccuracy: 0.00000000E+00
  | Maximum occupation number of highest empty state:  0.00E+00

  Writing Kohn-Sham eigenvalues.

  State    Occupation    Eigenvalue [Ha]    Eigenvalue [eV]
      1       2.00000         -19.008551         -517.24900
      2       2.00000         -18.982548         -516.54141
      3       2.00000         -18.981368         -516.50930
      4       2.00000         -18.955581         -515.80761
      5       2.00000          -1.095597          -29.81271
      6       2.00000          -1.067960          -29.06067
      7       2.00000          -1.065459          -28.99262
      8       2.00000          -1.024290          -27.87235
      9       2.00000          -0.621258          -16.90528
     10       2.00000          -0.614229          -16.71403
     11       2.00000          -0.599950          -16.32547
     12       2.00000          -0.578728          -15.74800
     13       2.00000          -0.570203          -15.51602
     14       2.00000          -0.487370          -13.26202
     15       2.00000          -0.481706          -13.10788
     16       2.00000          -0.456010          -12.40866
     17       2.00000          -0.447169          -12.16810
     18       2.00000          -0.407244          -11.08167
     19       2.00000          -0.402893          -10.96327
     20       2.00000          -0.383803          -10.44380
     21       1.00000          -0.095757           -2.60567
     22       0.00000          -0.070678           -1.92325
     23       0.00000          -0.050812           -1.38268
     24       0.00000          -0.030772           -0.83735
     25       0.00000          -0.023791           -0.64737
     26       0.00000          -0.002167           -0.05896
     27       0.00000           0.050614            1.37729
     28       0.00000           0.054662            1.48743
     29       0.00000           0.055985            1.52344
     30       0.00000           0.072362            1.96907
     31       0.00000           0.079461            2.16224
     32       0.00000           0.089912            2.44662
     33       0.00000           0.101537            2.76297
     34       0.00000           0.107907            2.93629
     35       0.00000           0.117513            3.19769
     36       0.00000           0.123372            3.35713
     37       0.00000           0.133522            3.63332
     38       0.00000           0.147546            4.01493
     39       0.00000           0.164348            4.47213
     40       0.00000           0.173001            4.70761
     41       0.00000           0.177174            4.82114
     42       0.00000           0.192652            5.24232
     43       0.00000           0.208306            5.66830
     44       0.00000           0.226188            6.15488
     45       0.00000           0.248549            6.76335
     46       0.00000           0.253396            6.89525
     47       0.00000           0.276793            7.53191
     48       0.00000           0.295449            8.03959
     49       0.00000           0.305206            8.30507
     50       0.00000           0.322718            8.78160
     51       0.00000           0.337045            9.17146
     52       0.00000           0.349914            9.52164
     53       0.00000           0.370663           10.08625
     54       0.00000           0.374103           10.17987
     55       0.00000           0.388556           10.57316
     56       0.00000           0.393954           10.72002
     57       0.00000           0.413329           11.24726
     58       0.00000           0.423199           11.51584
     59       0.00000           0.425196           11.57017
     60       0.00000           0.446776           12.15741
     61       0.00000           0.473064           12.87272
     62       0.00000           0.489994           13.33340
     63       0.00000           0.511721           13.92463
     64       0.00000           0.558087           15.18633
     65       0.00000           0.562840           15.31564
     66       0.00000           0.576330           15.68274
     67       0.00000           0.597910           16.26995
     68       0.00000           0.656751           17.87111
     69       0.00000           0.691143           18.80695
     70       0.00000           0.704513           19.17076
     71       0.00000           0.742381           20.20122
     72       0.00000           0.755623           20.56155
     73       0.00000           0.760355           20.69030

  Highest occupied state (VBM) at     -2.60567015 eV
  | Occupation number:      1.00000000

  Lowest unoccupied state (CBM) at    -2.60567015 eV
  | Occupation number:      1.00000000

  Overall HOMO-LUMO gap:      0.00000000 eV.

  Total energy components:
  | Sum of eigenvalues            :        -172.55959218 Ha       -4695.58541200 eV
  | XC energy correction          :         -36.99010035 Ha       -1006.55184331 eV
  | XC potential correction       :          47.28245399 Ha        1286.62103567 eV
  | Free-atom electrostatic energy:        -142.94978376 Ha       -3889.86153016 eV
  | Hartree energy correction     :          -1.59946972 Ha         -43.52378562 eV
  | van der Waals energy corr.    :           0.00000000 Ha           0.00000000 eV
  | Entropy correction            :          -0.00010367 Ha          -0.00282095 eV
  | ---------------------------
  | Total energy                  :        -306.81649202 Ha       -8348.90153542 eV
  | Total energy, T -> 0          :        -306.81659569 Ha       -8348.90435637 eV  <-- do not rely on this value for anything but (periodic) metals
  | Electronic free energy        :        -306.81669936 Ha       -8348.90717732 eV

  Derived energy quantities:
  | Kinetic energy                :         305.08032853 Ha        8301.65812295 eV
  | Electrostatic energy          :        -574.90672020 Ha      -15644.00781506 eV
  | Energy correction for multipole
  | error in Hartree potential    :           0.00044584 Ha           0.01213183 eV
  | Sum of eigenvalues per atom                           :        -361.19887785 eV
  | Total energy (T->0) per atom                          :        -642.22341203 eV  <-- do not rely on this value for anything but (periodic) metals
  | Electronic free energy per atom                       :        -642.22362902 eV

  Self-consistency convergence accuracy:
  | Change of charge density      : 0.5590E+00
  | Change of sum of eigenvalues  : 0.4461E+02 eV
  | Change of total energy        : 0.2520E+01 eV

  End self-consistency iteration #     1       :  max(cpu_time)    wall_clock(cpu1)
  | Time for this iteration                    :        1.413 s           1.413 s
  | Charge density update                      :        0.467 s           0.467 s
  | Density mixing                             :        0.002 s           0.003 s
  | Hartree multipole update                   :        0.005 s           0.005 s
  | Hartree multipole summation                :        0.242 s           0.242 s
  | Integration                                :        0.659 s           0.659 s
  | Solution of K.-S. eqns.                    :        0.036 s           0.035 s
  | Total energy evaluation                    :        0.000 s           0.001 s
------------------------------------------------------------

------------------------------------------------------------
          Begin self-consistency iteration #    2

  Date     :  20150727, Time     :  122844.020
------------------------------------------------------------
  Evaluating new KS density.
  Integration grid: deviation in total charge (<rho> - N_e) =  -7.105427E-15
  Pulay mixing of updated and previous charge densities.

  Evaluating partitioned Hartree potential by multipole expansion.
  | Analytical far-field extrapolation by fixed multipoles:
  | Hartree multipole sum: apparent total charge =  -0.278500E-05
  Summing up the Hartree potential.
  Time summed over all CPUs for potential: real work        1.920 s, elapsed        1.932 s
  | RMS charge density error from multipole expansion :   0.605211E-02

  Integrating Hamiltonian matrix: batch-based integration.
  Time summed over all CPUs for integration: real work        5.125 s, elapsed        5.241 s

  Updating Kohn-Sham eigenvalues, eigenvectors, occupation numbers, and Fermi level.
  Solving generalized eigenproblem
  Updating Kohn-Sham eigenvalues and eigenfunctions.
  Solving real generalised eigenvalue problem by standard LAPACK (fast)
  Determining occupation numbers for Kohn-Sham eigenstates.
  | Chemical potential (Fermi level) in eV                 : -.21038374E+01
  | Error in electron count due to remaining E_F inaccuracy: 0.30854466E-08
  | Maximum occupation number of highest empty state:  0.00E+00

  Highest occupied state (VBM) at     -2.10383739 eV
  | Occupation number:      1.00000000

  Lowest unoccupied state (CBM) at    -1.46418833 eV
  | Occupation number:      0.00000000

  Overall HOMO-LUMO gap:      0.63964906 eV.

  Total energy components:
  | Sum of eigenvalues            :        -168.63053165 Ha       -4588.67023526 eV
  | XC energy correction          :         -37.42391174 Ha       -1018.35645172 eV
  | XC potential correction       :          47.84772584 Ha        1302.00286516 eV
  | Free-atom electrostatic energy:        -142.94978376 Ha       -3889.86153016 eV
  | Hartree energy correction     :          -5.55610367 Ha        -151.18927322 eV
  | van der Waals energy corr.    :           0.00000000 Ha           0.00000000 eV
  | Entropy correction            :          -0.00010367 Ha          -0.00282095 eV
  | ---------------------------
  | Total energy                  :        -306.71260498 Ha       -8346.07462520 eV
  | Total energy, T -> 0          :        -306.71270865 Ha       -8346.07744615 eV  <-- do not rely on this value for anything but (periodic) metals
  | Electronic free energy        :        -306.71281232 Ha       -8346.08026709 eV

  Derived energy quantities:
  | Kinetic energy                :         307.26578166 Ha        8361.12732851 eV
  | Electrostatic energy          :        -576.55447491 Ha      -15688.84550199 eV
  | Energy correction for multipole
  | error in Hartree potential    :           0.00099079 Ha           0.02696078 eV
  | Sum of eigenvalues per atom                           :        -352.97463348 eV
  | Total energy (T->0) per atom                          :        -642.00595740 eV  <-- do not rely on this value for anything but (periodic) metals
  | Electronic free energy per atom                       :        -642.00617439 eV

  Self-consistency convergence accuracy:
  | Change of charge density      : 0.4249E+00
  | Change of sum of eigenvalues  : 0.1069E+03 eV
  | Change of total energy        : 0.2827E+01 eV

  End self-consistency iteration #     2       :  max(cpu_time)    wall_clock(cpu1)
  | Time for this iteration                    :        1.407 s           1.406 s
  | Charge density update                      :        0.463 s           0.462 s
  | Density mixing                             :        0.004 s           0.005 s
  | Hartree multipole update                   :        0.005 s           0.005 s
  | Hartree multipole summation                :        0.242 s           0.242 s
  | Integration                                :        0.657 s           0.656 s
  | Solution of K.-S. eqns.                    :        0.035 s           0.036 s
  | Total energy evaluation                    :        0.001 s           0.000 s
------------------------------------------------------------

------------------------------------------------------------
          Begin self-consistency iteration #    3

  Date     :  20150727, Time     :  122845.426
------------------------------------------------------------
  Evaluating new KS density.
  Integration grid: deviation in total charge (<rho> - N_e) =   3.085454E-09
  Pulay mixing of updated and previous charge densities.

  Evaluating partitioned Hartree potential by multipole expansion.
  | Analytical far-field extrapolation by fixed multipoles:
  | Hartree multipole sum: apparent total charge =  -0.259523E-05
  Summing up the Hartree potential.
  Time summed over all CPUs for potential: real work        1.920 s, elapsed        1.931 s
  | RMS charge density error from multipole expansion :   0.126059E-01

  Integrating Hamiltonian matrix: batch-based integration.
  Time summed over all CPUs for integration: real work        5.116 s, elapsed        5.241 s

  Updating Kohn-Sham eigenvalues, eigenvectors, occupation numbers, and Fermi level.
  Solving generalized eigenproblem
  Updating Kohn-Sham eigenvalues and eigenfunctions.
  Solving real generalised eigenvalue problem by standard LAPACK (fast)
  Determining occupation numbers for Kohn-Sham eigenstates.
  | Chemical potential (Fermi level) in eV                 : -.21311903E+01
  | Error in electron count due to remaining E_F inaccuracy: 0.20585844E-09
  | Maximum occupation number of highest empty state:  0.00E+00

  Highest occupied state (VBM) at     -2.13119028 eV
  | Occupation number:      1.00000000

  Lowest unoccupied state (CBM) at    -1.39494014 eV
  | Occupation number:      0.00000000

  Overall HOMO-LUMO gap:      0.73625014 eV.

  Total energy components:
  | Sum of eigenvalues            :        -168.88323966 Ha       -4595.54676998 eV
  | XC energy correction          :         -37.41390911 Ha       -1018.08426631 eV
  | XC potential correction       :          47.82787111 Ha        1301.46259049 eV
  | Free-atom electrostatic energy:        -142.94978376 Ha       -3889.86153016 eV
  | Hartree energy correction     :          -5.29304003 Ha        -144.03094733 eV
  | van der Waals energy corr.    :           0.00000000 Ha           0.00000000 eV
  | Entropy correction            :          -0.00010367 Ha          -0.00282095 eV
  | ---------------------------
  | Total energy                  :        -306.71210145 Ha       -8346.06092329 eV
  | Total energy, T -> 0          :        -306.71220512 Ha       -8346.06374424 eV  <-- do not rely on this value for anything but (periodic) metals
  | Electronic free energy        :        -306.71230878 Ha       -8346.06656519 eV

  Derived energy quantities:
  | Kinetic energy                :         305.78821846 Ha        8320.92078803 eV
  | Electrostatic energy          :        -575.08641080 Ha      -15648.89744502 eV
  | Energy correction for multipole
  | error in Hartree potential    :          -0.00230186 Ha          -0.06263672 eV
  | Sum of eigenvalues per atom                           :        -353.50359769 eV
  | Total energy (T->0) per atom                          :        -642.00490340 eV  <-- do not rely on this value for anything but (periodic) metals
  | Electronic free energy per atom                       :        -642.00512040 eV

  Self-consistency convergence accuracy:
  | Change of charge density      : 0.2080E+00
  | Change of sum of eigenvalues  : -.6877E+01 eV
  | Change of total energy        : 0.1370E-01 eV

  End self-consistency iteration #     3       :  max(cpu_time)    wall_clock(cpu1)
  | Time for this iteration                    :        1.406 s           1.406 s
  | Charge density update                      :        0.461 s           0.461 s
  | Density mixing                             :        0.006 s           0.006 s
  | Hartree multipole update                   :        0.004 s           0.005 s
  | Hartree multipole summation                :        0.242 s           0.242 s
  | Integration                                :        0.657 s           0.656 s
  | Solution of K.-S. eqns.                    :        0.035 s           0.036 s
  | Total energy evaluation                    :        0.000 s           0.000 s
------------------------------------------------------------

------------------------------------------------------------
          Begin self-consistency iteration #    4

  Date     :  20150727, Time     :  122846.832
------------------------------------------------------------
  Evaluating new KS density.
  Integration grid: deviation in total charge (<rho> - N_e) =   2.058655E-10
  Pulay mixing of updated and previous charge densities.

  Evaluating partitioned Hartree potential by multipole expansion.
  | Analytical far-field extrapolation by fixed multipoles:
  | Hartree multipole sum: apparent total charge =  -0.306455E-05
  Summing up the Hartree potential.
  Time summed over all CPUs for potential: real work        1.920 s, elapsed        1.930 s
  | RMS charge density error from multipole expansion :   0.157588E-01

  Integrating Hamiltonian matrix: batch-based integration.
  Time summed over all CPUs for integration: real work        5.117 s, elapsed        5.228 s

  Updating Kohn-Sham eigenvalues, eigenvectors, occupation numbers, and Fermi level.
  Solving generalized eigenproblem
  Updating Kohn-Sham eigenvalues and eigenfunctions.
  Solving real generalised eigenvalue problem by standard LAPACK (fast)
  Determining occupation numbers for Kohn-Sham eigenstates.
  | Chemical potential (Fermi level) in eV                 : -.20023376E+01
  | Error in electron count due to remaining E_F inaccuracy: 0.67451822E-10
  | Maximum occupation number of highest empty state:  0.00E+00

  Highest occupied state (VBM) at     -2.00233756 eV
  | Occupation number:      1.00000000

  Lowest unoccupied state (CBM) at    -1.29246446 eV
  | Occupation number:      0.00000000

  Overall HOMO-LUMO gap:      0.70987309 eV.

  Total energy components:
  | Sum of eigenvalues            :        -167.95662218 Ha       -4570.33222552 eV
  | XC energy correction          :         -37.53510126 Ha       -1021.38207258 eV
  | XC potential correction       :          47.98415957 Ha        1305.71541588 eV
  | Free-atom electrostatic energy:        -142.94978376 Ha       -3889.86153016 eV
  | Hartree energy correction     :          -6.25081963 Ha        -170.09345652 eV
  | van der Waals energy corr.    :           0.00000000 Ha           0.00000000 eV
  | Entropy correction            :          -0.00010367 Ha          -0.00282095 eV
  | ---------------------------
  | Total energy                  :        -306.70816727 Ha       -8345.95386890 eV
  | Total energy, T -> 0          :        -306.70827094 Ha       -8345.95668985 eV  <-- do not rely on this value for anything but (periodic) metals
  | Electronic free energy        :        -306.70837461 Ha       -8345.95951080 eV

  Derived energy quantities:
  | Kinetic energy                :         305.89261233 Ha        8323.76148991 eV
  | Electrostatic energy          :        -575.06567835 Ha      -15648.33328624 eV
  | Energy correction for multipole
  | error in Hartree potential    :          -0.00322476 Ha          -0.08775005 eV
  | Sum of eigenvalues per atom                           :        -351.56401735 eV
  | Total energy (T->0) per atom                          :        -641.99666845 eV  <-- do not rely on this value for anything but (periodic) metals
  | Electronic free energy per atom                       :        -641.99688545 eV

  Self-consistency convergence accuracy:
  | Change of charge density      : 0.9282E-01
  | Change of sum of eigenvalues  : 0.2521E+02 eV
  | Change of total energy        : 0.1071E+00 eV

  End self-consistency iteration #     4       :  max(cpu_time)    wall_clock(cpu1)
  | Time for this iteration                    :        1.405 s           1.405 s
  | Charge density update                      :        0.461 s           0.461 s
  | Density mixing                             :        0.007 s           0.007 s
  | Hartree multipole update                   :        0.004 s           0.004 s
  | Hartree multipole summation                :        0.242 s           0.242 s
  | Integration                                :        0.655 s           0.655 s
  | Solution of K.-S. eqns.                    :        0.035 s           0.035 s
  | Total energy evaluation                    :        0.001 s           0.001 s
------------------------------------------------------------

------------------------------------------------------------
          Begin self-consistency iteration #    5

  Date     :  20150727, Time     :  122848.237
------------------------------------------------------------
  Evaluating new KS density.
  Integration grid: deviation in total charge (<rho> - N_e) =   6.746603E-11
  Pulay mixing of updated and previous charge densities.

  Evaluating partitioned Hartree potential by multipole expansion.
  | Analytical far-field extrapolation by fixed multipoles:
  | Hartree multipole sum: apparent total charge =  -0.312802E-05
  Summing up the Hartree potential.
  Time summed over all CPUs for potential: real work        1.920 s, elapsed        1.929 s
  | RMS charge density error from multipole expansion :   0.160026E-01

  Integrating Hamiltonian matrix: batch-based integration.
  Time summed over all CPUs for integration: real work        5.121 s, elapsed        5.234 s

  Updating Kohn-Sham eigenvalues, eigenvectors, occupation numbers, and Fermi level.
  Solving generalized eigenproblem
  Updating Kohn-Sham eigenvalues and eigenfunctions.
  Solving real generalised eigenvalue problem by standard LAPACK (fast)
  Determining occupation numbers for Kohn-Sham eigenstates.
  | Chemical potential (Fermi level) in eV                 : -.19700724E+01
  | Error in electron count due to remaining E_F inaccuracy: -.64918027E-08
  | Maximum occupation number of highest empty state:  0.00E+00

  Highest occupied state (VBM) at     -6.87956132 eV
  | Occupation number:      2.00000000

  Lowest unoccupied state (CBM) at    -1.97007239 eV
  | Occupation number:      0.99999999

  Overall HOMO-LUMO gap:      4.90948892 eV.

  Total energy components:
  | Sum of eigenvalues            :        -167.94056172 Ha       -4569.89519806 eV
  | XC energy correction          :         -37.53946378 Ha       -1021.50078290 eV
  | XC potential correction       :          47.98966156 Ha        1305.86513286 eV
  | Free-atom electrostatic energy:        -142.94978376 Ha       -3889.86153016 eV
  | Hartree energy correction     :          -6.26790357 Ha        -170.55833417 eV
  | van der Waals energy corr.    :           0.00000000 Ha           0.00000000 eV
  | Entropy correction            :          -0.00010367 Ha          -0.00282095 eV
  | ---------------------------
  | Total energy                  :        -306.70805127 Ha       -8345.95071243 eV
  | Total energy, T -> 0          :        -306.70815494 Ha       -8345.95353338 eV  <-- do not rely on this value for anything but (periodic) metals
  | Electronic free energy        :        -306.70825861 Ha       -8345.95635432 eV

  Derived energy quantities:
  | Kinetic energy                :         305.91590280 Ha        8324.39525575 eV
  | Electrostatic energy          :        -575.08449029 Ha      -15648.84518528 eV
  | Energy correction for multipole
  | error in Hartree potential    :          -0.00338140 Ha          -0.09201247 eV
  | Sum of eigenvalues per atom                           :        -351.53039985 eV
  | Total energy (T->0) per atom                          :        -641.99642564 eV  <-- do not rely on this value for anything but (periodic) metals
  | Electronic free energy per atom                       :        -641.99664264 eV

  Self-consistency convergence accuracy:
  | Change of charge density      : 0.1712E-01
  | Change of sum of eigenvalues  : 0.4370E+00 eV
  | Change of total energy        : 0.3156E-02 eV

  End self-consistency iteration #     5       :  max(cpu_time)    wall_clock(cpu1)
  | Time for this iteration                    :        1.407 s           1.407 s
  | Charge density update                      :        0.461 s           0.461 s
  | Density mixing                             :        0.008 s           0.008 s
  | Hartree multipole update                   :        0.005 s           0.005 s
  | Hartree multipole summation                :        0.242 s           0.242 s
  | Integration                                :        0.655 s           0.655 s
  | Solution of K.-S. eqns.                    :        0.036 s           0.036 s
  | Total energy evaluation                    :        0.000 s           0.000 s
------------------------------------------------------------

------------------------------------------------------------
          Begin self-consistency iteration #    6

  Date     :  20150727, Time     :  122849.644
------------------------------------------------------------
  Evaluating new KS density.
  Integration grid: deviation in total charge (<rho> - N_e) =  -6.491817E-09
  Pulay mixing of updated and previous charge densities.

  Evaluating partitioned Hartree potential by multipole expansion.
  | Analytical far-field extrapolation by fixed multipoles:
  | Hartree multipole sum: apparent total charge =  -0.313217E-05
  Summing up the Hartree potential.
  Time summed over all CPUs for potential: real work        1.920 s, elapsed        1.930 s
  | RMS charge density error from multipole expansion :   0.161897E-01

  Integrating Hamiltonian matrix: batch-based integration.
  Time summed over all CPUs for integration: real work        5.123 s, elapsed        5.254 s

  Updating Kohn-Sham eigenvalues, eigenvectors, occupation numbers, and Fermi level.
  Solving generalized eigenproblem
  Updating Kohn-Sham eigenvalues and eigenfunctions.
  Solving real generalised eigenvalue problem by standard LAPACK (fast)
  Determining occupation numbers for Kohn-Sham eigenstates.
  | Chemical potential (Fermi level) in eV                 : -.19808478E+01
  | Error in electron count due to remaining E_F inaccuracy: -.35217909E-08
  | Maximum occupation number of highest empty state:  0.00E+00

  Highest occupied state (VBM) at     -6.89598594 eV
  | Occupation number:      2.00000000

  Lowest unoccupied state (CBM) at    -1.98084783 eV
  | Occupation number:      1.00000000

  Overall HOMO-LUMO gap:      4.91513811 eV.

  Total energy components:
  | Sum of eigenvalues            :        -167.97301971 Ha       -4570.77842496 eV
  | XC energy correction          :         -37.53762387 Ha       -1021.45071629 eV
  | XC potential correction       :          47.98700823 Ha        1305.79293188 eV
  | Free-atom electrostatic energy:        -142.94978376 Ha       -3889.86153016 eV
  | Hartree energy correction     :          -6.23462853 Ha        -169.65287427 eV
  | van der Waals energy corr.    :           0.00000000 Ha           0.00000000 eV
  | Entropy correction            :          -0.00010367 Ha          -0.00282095 eV
  | ---------------------------
  | Total energy                  :        -306.70804765 Ha       -8345.95061381 eV
  | Total energy, T -> 0          :        -306.70815132 Ha       -8345.95343475 eV  <-- do not rely on this value for anything but (periodic) metals
  | Electronic free energy        :        -306.70825498 Ha       -8345.95625570 eV

  Derived energy quantities:
  | Kinetic energy                :         305.90014297 Ha        8323.96640898 eV
  | Electrostatic energy          :        -575.07056675 Ha      -15648.46630650 eV
  | Energy correction for multipole
  | error in Hartree potential    :          -0.00354414 Ha          -0.09644089 eV
  | Sum of eigenvalues per atom                           :        -351.59834038 eV
  | Total energy (T->0) per atom                          :        -641.99641806 eV  <-- do not rely on this value for anything but (periodic) metals
  | Electronic free energy per atom                       :        -641.99663505 eV

  Self-consistency convergence accuracy:
  | Change of charge density      : 0.9352E-02
  | Change of sum of eigenvalues  : -.8832E+00 eV
  | Change of total energy        : 0.9862E-04 eV

  End self-consistency iteration #     6       :  max(cpu_time)    wall_clock(cpu1)
  | Time for this iteration                    :        1.412 s           1.412 s
  | Charge density update                      :        0.460 s           0.460 s
  | Density mixing                             :        0.009 s           0.009 s
  | Hartree multipole update                   :        0.005 s           0.004 s
  | Hartree multipole summation                :        0.242 s           0.242 s
  | Integration                                :        0.660 s           0.661 s
  | Solution of K.-S. eqns.                    :        0.036 s           0.035 s
  | Total energy evaluation                    :        0.000 s           0.000 s
------------------------------------------------------------

------------------------------------------------------------
          Begin self-consistency iteration #    7

  Date     :  20150727, Time     :  122851.056
------------------------------------------------------------
  Evaluating new KS density.
  Integration grid: deviation in total charge (<rho> - N_e) =  -3.521791E-09
  Pulay mixing of updated and previous charge densities.

  Evaluating partitioned Hartree potential by multipole expansion.
  | Analytical far-field extrapolation by fixed multipoles:
  | Hartree multipole sum: apparent total charge =  -0.310048E-05
  Summing up the Hartree potential.
  Time summed over all CPUs for potential: real work        1.920 s, elapsed        1.931 s
  | RMS charge density error from multipole expansion :   0.161811E-01

  Integrating Hamiltonian matrix: batch-based integration.
  Time summed over all CPUs for integration: real work        5.122 s, elapsed        5.237 s

  Updating Kohn-Sham eigenvalues, eigenvectors, occupation numbers, and Fermi level.
  Solving generalized eigenproblem
  Updating Kohn-Sham eigenvalues and eigenfunctions.
  Solving real generalised eigenvalue problem by standard LAPACK (fast)
  Determining occupation numbers for Kohn-Sham eigenstates.
  | Chemical potential (Fermi level) in eV                 : -.19985512E+01
  | Error in electron count due to remaining E_F inaccuracy: 0.15553070E-09
  | Maximum occupation number of highest empty state:  0.00E+00

  Highest occupied state (VBM) at     -1.99855124 eV
  | Occupation number:      1.00000000

  Lowest unoccupied state (CBM) at    -1.32980736 eV
  | Occupation number:      0.00000000

  Overall HOMO-LUMO gap:      0.66874387 eV.

  Total energy components:
  | Sum of eigenvalues            :        -168.02747988 Ha       -4572.26036151 eV
  | XC energy correction          :         -37.53236567 Ha       -1021.30763357 eV
  | XC potential correction       :          47.98000615 Ha        1305.60239563 eV
  | Free-atom electrostatic energy:        -142.94978376 Ha       -3889.86153016 eV
  | Hartree energy correction     :          -6.17839481 Ha        -168.12267677 eV
  | van der Waals energy corr.    :           0.00000000 Ha           0.00000000 eV
  | Entropy correction            :          -0.00010367 Ha          -0.00282095 eV
  | ---------------------------
  | Total energy                  :        -306.70801798 Ha       -8345.94980639 eV
  | Total energy, T -> 0          :        -306.70812164 Ha       -8345.95262733 eV  <-- do not rely on this value for anything but (periodic) metals
  | Electronic free energy        :        -306.70822531 Ha       -8345.95544828 eV

  Derived energy quantities:
  | Kinetic energy                :         305.91935625 Ha        8324.48922895 eV
  | Electrostatic energy          :        -575.09500855 Ha      -15649.13140176 eV
  | Energy correction for multipole
  | error in Hartree potential    :          -0.00364344 Ha          -0.09914294 eV
  | Sum of eigenvalues per atom                           :        -351.71233550 eV
  | Total energy (T->0) per atom                          :        -641.99635595 eV  <-- do not rely on this value for anything but (periodic) metals
  | Electronic free energy per atom                       :        -641.99657294 eV

  Self-consistency convergence accuracy:
  | Change of charge density      : 0.6661E-02
  | Change of sum of eigenvalues  : -.1482E+01 eV
  | Change of total energy        : 0.8074E-03 eV

  End self-consistency iteration #     7       :  max(cpu_time)    wall_clock(cpu1)
  | Time for this iteration                    :        1.408 s           1.407 s
  | Charge density update                      :        0.459 s           0.458 s
  | Density mixing                             :        0.010 s           0.010 s
  | Hartree multipole update                   :        0.005 s           0.004 s
  | Hartree multipole summation                :        0.242 s           0.243 s
  | Integration                                :        0.656 s           0.655 s
  | Solution of K.-S. eqns.                    :        0.035 s           0.035 s
  | Total energy evaluation                    :        0.000 s           0.000 s
------------------------------------------------------------

------------------------------------------------------------
          Begin self-consistency iteration #    8

  Date     :  20150727, Time     :  122852.464
------------------------------------------------------------
  Evaluating new KS density.
  Integration grid: deviation in total charge (<rho> - N_e) =   1.555449E-10
  Pulay mixing of updated and previous charge densities.

  Evaluating partitioned Hartree potential by multipole expansion.
  | Analytical far-field extrapolation by fixed multipoles:
  | Hartree multipole sum: apparent total charge =  -0.308401E-05
  Summing up the Hartree potential.
  Time summed over all CPUs for potential: real work        1.919 s, elapsed        1.929 s
  | RMS charge density error from multipole expansion :   0.162098E-01

  Integrating Hamiltonian matrix: batch-based integration.
  Time summed over all CPUs for integration: real work        5.121 s, elapsed        5.235 s

  Updating Kohn-Sham eigenvalues, eigenvectors, occupation numbers, and Fermi level.
  Solving generalized eigenproblem
  Updating Kohn-Sham eigenvalues and eigenfunctions.
  Solving real generalised eigenvalue problem by standard LAPACK (fast)
  Determining occupation numbers for Kohn-Sham eigenstates.
  | Chemical potential (Fermi level) in eV                 : -.20065027E+01
  | Error in electron count due to remaining E_F inaccuracy: 0.00000000E+00
  | Maximum occupation number of highest empty state:  0.00E+00

  Highest occupied state (VBM) at     -2.00650274 eV
  | Occupation number:      1.00000000

  Lowest unoccupied state (CBM) at    -2.00650274 eV
  | Occupation number:      1.00000000

  Overall HOMO-LUMO gap:      0.00000000 eV.

  Total energy components:
  | Sum of eigenvalues            :        -168.06637785 Ha       -4573.31882919 eV
  | XC energy correction          :         -37.52896668 Ha       -1021.21514223 eV
  | XC potential correction       :          47.97544662 Ha        1305.47832464 eV
  | Free-atom electrostatic energy:        -142.94978376 Ha       -3889.86153016 eV
  | Hartree energy correction     :          -6.13833182 Ha        -167.03250731 eV
  | van der Waals energy corr.    :           0.00000000 Ha           0.00000000 eV
  | Entropy correction            :          -0.00010367 Ha          -0.00282095 eV
  | ---------------------------
  | Total energy                  :        -306.70801349 Ha       -8345.94968426 eV
  | Total energy, T -> 0          :        -306.70811716 Ha       -8345.95250521 eV  <-- do not rely on this value for anything but (periodic) metals
  | Electronic free energy        :        -306.70822082 Ha       -8345.95532615 eV

  Derived energy quantities:
  | Kinetic energy                :         305.93204206 Ha        8324.83442749 eV
  | Electrostatic energy          :        -575.11108887 Ha      -15649.56896952 eV
  | Energy correction for multipole
  | error in Hartree potential    :          -0.00374211 Ha          -0.10182799 eV
  | Sum of eigenvalues per atom                           :        -351.79375609 eV
  | Total energy (T->0) per atom                          :        -641.99634655 eV  <-- do not rely on this value for anything but (periodic) metals
  | Electronic free energy per atom                       :        -641.99656355 eV

  Self-consistency convergence accuracy:
  | Change of charge density      : 0.3055E-02
  | Change of sum of eigenvalues  : -.1058E+01 eV
  | Change of total energy        : 0.1221E-03 eV

  End self-consistency iteration #     8       :  max(cpu_time)    wall_clock(cpu1)
  | Time for this iteration                    :        1.408 s           1.407 s
  | Charge density update                      :        0.458 s           0.458 s
  | Density mixing                             :        0.012 s           0.011 s
  | Hartree multipole update                   :        0.004 s           0.005 s
  | Hartree multipole summation                :        0.242 s           0.242 s
  | Integration                                :        0.656 s           0.655 s
  | Solution of K.-S. eqns.                    :        0.035 s           0.036 s
  | Total energy evaluation                    :        0.000 s           0.000 s
------------------------------------------------------------

------------------------------------------------------------
          Begin self-consistency iteration #    9

  Date     :  20150727, Time     :  122853.871
------------------------------------------------------------
  Evaluating new KS density.
  Integration grid: deviation in total charge (<rho> - N_e) =   2.131628E-14
  Pulay mixing of updated and previous charge densities.

  Evaluating partitioned Hartree potential by multipole expansion.
  | Analytical far-field extrapolation by fixed multipoles:
  | Hartree multipole sum: apparent total charge =  -0.308022E-05
  Summing up the Hartree potential.
  Time summed over all CPUs for potential: real work        1.919 s, elapsed        1.930 s
  | RMS charge density error from multipole expansion :   0.162141E-01

  Integrating Hamiltonian matrix: batch-based integration.
  Time summed over all CPUs for integration: real work        5.117 s, elapsed        5.230 s

  Updating Kohn-Sham eigenvalues, eigenvectors, occupation numbers, and Fermi level.
  Solving generalized eigenproblem
  Updating Kohn-Sham eigenvalues and eigenfunctions.
  Solving real generalised eigenvalue problem by standard LAPACK (fast)
  Determining occupation numbers for Kohn-Sham eigenstates.
  | Chemical potential (Fermi level) in eV                 : -.20081589E+01
  | Error in electron count due to remaining E_F inaccuracy: 0.00000000E+00
  | Maximum occupation number of highest empty state:  0.00E+00

  Highest occupied state (VBM) at     -2.00815893 eV
  | Occupation number:      1.00000000

  Lowest unoccupied state (CBM) at    -2.00815893 eV
  | Occupation number:      1.00000000

  Overall HOMO-LUMO gap:      0.00000000 eV.

  Total energy components:
  | Sum of eigenvalues            :        -168.06074534 Ha       -4573.16556082 eV
  | XC energy correction          :         -37.52963136 Ha       -1021.23322906 eV
  | XC potential correction       :          47.97631130 Ha        1305.50185362 eV
  | Free-atom electrostatic energy:        -142.94978376 Ha       -3889.86153016 eV
  | Hartree energy correction     :          -6.14416411 Ha        -167.19121210 eV
  | van der Waals energy corr.    :           0.00000000 Ha           0.00000000 eV
  | Entropy correction            :          -0.00010367 Ha          -0.00282095 eV
  | ---------------------------
  | Total energy                  :        -306.70801328 Ha       -8345.94967852 eV
  | Total energy, T -> 0          :        -306.70811695 Ha       -8345.95249947 eV  <-- do not rely on this value for anything but (periodic) metals
  | Electronic free energy        :        -306.70822061 Ha       -8345.95532042 eV

  Derived energy quantities:
  | Kinetic energy                :         305.93645309 Ha        8324.95445765 eV
  | Electrostatic energy          :        -575.11483501 Ha      -15649.67090711 eV
  | Energy correction for multipole
  | error in Hartree potential    :          -0.00374930 Ha          -0.10202352 eV
  | Sum of eigenvalues per atom                           :        -351.78196622 eV
  | Total energy (T->0) per atom                          :        -641.99634611 eV  <-- do not rely on this value for anything but (periodic) metals
  | Electronic free energy per atom                       :        -641.99656311 eV

  Self-consistency convergence accuracy:
  | Change of charge density      : 0.8554E-03
  | Change of sum of eigenvalues  : 0.1533E+00 eV
  | Change of total energy        : 0.5734E-05 eV

  End self-consistency iteration #     9       :  max(cpu_time)    wall_clock(cpu1)
  | Time for this iteration                    :        1.409 s           1.409 s
  | Charge density update                      :        0.458 s           0.458 s
  | Density mixing                             :        0.013 s           0.012 s
  | Hartree multipole update                   :        0.005 s           0.005 s
  | Hartree multipole summation                :        0.242 s           0.242 s
  | Integration                                :        0.655 s           0.655 s
  | Solution of K.-S. eqns.                    :        0.035 s           0.035 s
  | Total energy evaluation                    :        0.000 s           0.001 s
------------------------------------------------------------

------------------------------------------------------------
          Begin self-consistency iteration #   10

  Date     :  20150727, Time     :  122855.280
------------------------------------------------------------
  Evaluating new KS density.
  Integration grid: deviation in total charge (<rho> - N_e) =  -7.105427E-15
[...]
  | Electronic free energy        :        -306.71016990 Ha       -8346.00836308 eV

  Derived energy quantities:
  | Kinetic energy                :         305.93658309 Ha        8324.95799519 eV
  | Electrostatic energy          :        -575.11527257 Ha      -15649.68281385 eV
  | Energy correction for multipole
  | error in Hartree potential    :          -0.00377176 Ha          -0.10263470 eV
  | Sum of eigenvalues per atom                           :        -351.78968569 eV
  | Total energy (T->0) per atom                          :        -642.00042632 eV  <-- do not rely on this value for anything but (periodic) metals
  | Electronic free energy per atom                       :        -642.00064331 eV

  atomic forces [eV/Ang]:
  -----------------------
  atom #    1
   Hellmann-Feynman + Multipole  : -.243751E+01 -.670798E+01 -.905007E+01
   Pulay + GGA                   : 0.272456E+01 0.794241E+01 0.727425E+01
   Van der Waals               : 0.173821E-02 0.328129E-02 -.439242E-02
   ----------------------------------------------------------------
   Total forces(   1)            : 0.288782E+00 0.123771E+01 -.178021E+01
  atom #    2
   Hellmann-Feynman + Multipole  : 0.479544E+00 -.966124E+00 0.404575E+00
   Pulay + GGA                   : -.821947E-01 0.156822E+00 -.604439E-01
   Van der Waals               : -.367684E-03 0.454863E-02 0.110532E-02
   ----------------------------------------------------------------
   Total forces(   2)            : 0.396981E+00 -.804754E+00 0.345236E+00
  atom #    3
   Hellmann-Feynman + Multipole  : -.566628E+00 -.219137E+00 0.156467E-01
   Pulay + GGA                   : 0.165468E+00 0.362684E-01 0.111199E-01
   Van der Waals               : -.943142E-04 0.197519E-02 0.401442E-03
   ----------------------------------------------------------------
   Total forces(   3)            : -.401254E+00 -.180894E+00 0.271680E-01
  atom #    4
   Hellmann-Feynman + Multipole  : -.154158E+00 -.120456E+00 0.130769E+01
   Pulay + GGA                   : -.360121E-01 -.887680E-02 0.666753E-01
   Van der Waals               : -.234226E-03 0.338572E-02 0.244973E-02
   ----------------------------------------------------------------
   Total forces(   4)            : -.190404E+00 -.125947E+00 0.137681E+01
  atom #    5
   Hellmann-Feynman + Multipole  : 0.716069E+01 -.509818E+01 -.743597E+01
   Pulay + GGA                   : -.790747E+01 0.276564E+01 0.592707E+01
   Van der Waals               : -.234521E-02 -.196787E-02 0.262267E-02
   ----------------------------------------------------------------
   Total forces(   5)            : -.749127E+00 -.233450E+01 -.150628E+01
  atom #    6
   Hellmann-Feynman + Multipole  : 0.179326E+00 0.170312E+01 0.129435E+01
   Pulay + GGA                   : 0.131949E-01 0.441495E-01 0.834070E-01
   Van der Waals               : -.264227E-02 0.313562E-02 0.800214E-02
   ----------------------------------------------------------------
   Total forces(   6)            : 0.189879E+00 0.175040E+01 0.138576E+01
  atom #    7
   Hellmann-Feynman + Multipole  : 0.554680E+00 0.599359E+00 0.625510E-01
   Pulay + GGA                   : -.108672E+00 -.561522E-01 0.442523E-01
   Van der Waals               : -.214402E-03 0.242319E-02 0.343190E-02
   ----------------------------------------------------------------
   Total forces(   7)            : 0.445794E+00 0.545630E+00 0.110235E+00
  atom #    8
   Hellmann-Feynman + Multipole  : 0.707254E+01 -.407134E+01 -.889193E+01
   Pulay + GGA                   : -.751736E+01 0.455694E+01 0.109949E+02
   Van der Waals               : 0.319429E-02 -.354599E-02 -.277906E-02
   ----------------------------------------------------------------
   Total forces(   8)            : -.441618E+00 0.482054E+00 0.210019E+01
  atom #    9
   Hellmann-Feynman + Multipole  : -.287402E+00 0.230822E+00 -.221456E+01
   Pulay + GGA                   : 0.160260E-01 0.627822E-02 0.126204E+00
   Van der Waals               : -.119316E-02 -.417953E-03 -.256766E-02
   ----------------------------------------------------------------
   Total forces(   9)            : -.272570E+00 0.236682E+00 -.209092E+01
  atom #   10
   Hellmann-Feynman + Multipole  : 0.109972E+01 -.115164E+01 0.250902E+00
   Pulay + GGA                   : -.484558E-01 0.679186E-01 0.417014E-02
   Van der Waals               : 0.306786E-03 -.146582E-02 -.257072E-02
   ----------------------------------------------------------------
   Total forces(  10)            : 0.105157E+01 -.108519E+01 0.252501E+00
  atom #   11
   Hellmann-Feynman + Multipole  : -.156219E+01 -.129788E+02 -.440570E+00
   Pulay + GGA                   : 0.247279E+01 0.132561E+02 -.138046E+01
   Van der Waals               : 0.356993E-03 -.537744E-02 -.393441E-02
   ----------------------------------------------------------------
   Total forces(  11)            : 0.910956E+00 0.271939E+00 -.182496E+01
  atom #   12
   Hellmann-Feynman + Multipole  : -.345396E+00 0.652608E+00 0.388450E+00
   Pulay + GGA                   : -.874207E-01 0.900863E-01 0.788107E-01
   Van der Waals               : 0.114957E-02 -.200430E-02 0.230290E-05
   ----------------------------------------------------------------
   Total forces(  12)            : -.431667E+00 0.740690E+00 0.467263E+00
  atom #   13
   Hellmann-Feynman + Multipole  : -.843927E+00 -.796016E+00 0.126369E+01
   Pulay + GGA                   : 0.526837E-01 0.696634E-01 -.121544E+00
   Van der Waals               : 0.345422E-03 -.397026E-02 -.177123E-02
   ----------------------------------------------------------------
   Total forces(  13)            : -.790898E+00 -.730322E+00 0.114037E+01
  Timings for vdw_correction_hirshfeld (Tkatchenko-Scheffler 2009):
  | CPU time:        3.778 s, Wall clock time:        3.779 s.
  Removing unitary transformations (pure translations, rotations) from forces on atoms.
  Atomic forces before filtering:
  | Net force on center of mass :  0.642434E-02 0.349980E-02 0.316170E-02 eV/A
  | Net torque on center of mass:  0.123273E-01 -.129731E-01 -.939842E-04 eV
  Atomic forces after filtering:
  | Net force on center of mass :  0.892031E-16 -.892031E-16 -.178406E-15 eV/A
  | Net torque on center of mass:  -.210059E-14 0.566451E-15 0.000000E+00 eV
 
  Energy and forces in a compact form:
  | Total energy uncorrected      :         -0.834600272118845E+04 eV
  | Total energy corrected        :         -0.834600554213637E+04 eV  <-- do not rely on this value for anything but (periodic) metals
  | Electronic free energy        :         -0.834600836308429E+04 eV
  Total atomic forces (unitary forces cleaned) [eV/Ang]:
  |   1          0.287530862292487E+00          0.123697801777653E+01         -0.178032583377436E+01
  |   2          0.395406508732514E+00         -0.805667417220938E+00          0.345130274094878E+00
  |   3         -0.402528058917092E+00         -0.181452391394204E+00          0.265537551033181E-01
  |   4         -0.191213606145477E+00         -0.126501775123497E+00          0.137686978203954E+01
  |   5         -0.749230934721366E+00         -0.233472576646253E+01         -0.150607667069179E+01
  |   6          0.189904792970775E+00          0.175035953930385E+01          0.138568102144532E+01
  |   7          0.445896133249015E+00          0.545344410098416E+00          0.110911018581732E+00
  |   8         -0.441546904404799E+00          0.482264227366866E+00          0.209949343390500E+01
  |   9         -0.272037694829860E+00          0.237160667875662E+00         -0.209165681645050E+01
  |  10          0.105145693384313E+01         -0.108513572473786E+01          0.251953047963739E+00
  |  11          0.910387190609738E+00          0.271652281438025E+00         -0.182527154591687E+01
  |  12         -0.432139165633138E+00          0.740442256172705E+00          0.466994336364727E+00
  |  13         -0.791886057045930E+00         -0.730718325093018E+00          0.113974419733528E+01
 
  ------------------------------------ 
  Start decomposition of the XC Energy 
  ------------------------------------ 
  Hartree-Fock part   :          0.000000000 Ha              0.000000000 eV
  ------------------------------------ 
  X Energy            :        -36.198323146 Ha           -985.006489390 eV
  C Energy GGA        :         -1.331000684 Ha            -36.218371389 eV
  Total XC Energy     :        -37.529323831 Ha          -1021.224860779 eV
  LDA X and C from self-consistent density 
  X Energy LDA        :        -32.630187235 Ha           -887.912571164 eV
  C Energy LDA        :         -2.678141308 Ha            -72.875932870 eV
  ------------------------------------ 
  End decomposition of the XC Energy 
  ------------------------------------ 
  Performing Hirshfeld analysis of fragment charges and moments.
  ----------------------------------------------------------------------
  | Atom     1: O
  |   Hirshfeld charge        :     -0.13367268
  |   Free atom volume        :     23.95238533
  |   Hirshfeld volume        :     23.77821779
  |   Hirshfeld dipole vector :      0.00569416       0.00952895       0.04511515
  |   Hirshfeld dipole moment :      0.04646075
  |   Hirshfeld second moments:      0.05136727      -0.00275522      -0.00788624
  |                                 -0.00275522      -0.00560591      -0.02407292
  |                                 -0.00788624      -0.02407292       0.02036101
  ----------------------------------------------------------------------
  | Atom     2: H
  |   Hirshfeld charge        :     -0.00861237
  |   Free atom volume        :     10.44207651
  |   Hirshfeld volume        :     18.60263969
  |   Hirshfeld dipole vector :      0.02346829      -0.08133350       0.05596916
  |   Hirshfeld dipole moment :      0.10148126
  |   Hirshfeld second moments:     -0.12123041       0.00814368      -0.01359847
  |                                  0.00814368      -0.17673073       0.03462126
  |                                 -0.01359847       0.03462126      -0.10537758
  ----------------------------------------------------------------------
  | Atom     3: H
  |   Hirshfeld charge        :      0.08528659
  |   Free atom volume        :     10.44207651
  |   Hirshfeld volume        :     14.78492636
  |   Hirshfeld dipole vector :      0.01444296      -0.02165711       0.03238103
  |   Hirshfeld dipole moment :      0.04154709
  |   Hirshfeld second moments:     -0.04276458      -0.02119782       0.00486736
  |                                 -0.02119782      -0.06858740       0.00756773
  |                                  0.00486736       0.00756773      -0.01618802
  ----------------------------------------------------------------------
  | Atom     4: H
  |   Hirshfeld charge        :      0.09741557
  |   Free atom volume        :     10.44207651
  |   Hirshfeld volume        :     10.59540814
  |   Hirshfeld dipole vector :     -0.00877950      -0.00700059       0.02568716
  |   Hirshfeld dipole moment :      0.02803423
  |   Hirshfeld second moments:      0.04212924       0.01123159       0.00316463
  |                                  0.01123159       0.03514877       0.00673357
  |                                  0.00316463       0.00673357       0.00566444
  ----------------------------------------------------------------------
  | Atom     5: O
  |   Hirshfeld charge        :     -0.23605006
  |   Free atom volume        :     23.95238533
  |   Hirshfeld volume        :     21.79373117
  |   Hirshfeld dipole vector :     -0.02249454       0.02487001       0.00319614
  |   Hirshfeld dipole moment :      0.03368586
  |   Hirshfeld second moments:      0.03587492       0.04625425      -0.01382222
  |                                  0.04625425       0.03091993       0.00985093
  |                                 -0.01382222       0.00985093       0.05473284
  ----------------------------------------------------------------------
  | Atom     6: H
  |   Hirshfeld charge        :      0.09316605
  |   Free atom volume        :     10.44207651
  |   Hirshfeld volume        :      9.03162074
  |   Hirshfeld dipole vector :      0.00660961       0.02388955       0.03228672
  |   Hirshfeld dipole moment :      0.04070417
  |   Hirshfeld second moments:      0.06171258      -0.00340793      -0.00915914
  |                                 -0.00340793       0.02891173      -0.01691361
  |                                 -0.00915914      -0.01691361       0.06614302
  ----------------------------------------------------------------------
  | Atom     7: H
  |   Hirshfeld charge        :      0.14011386
  |   Free atom volume        :     10.44207651
  |   Hirshfeld volume        :      8.78043417
  |   Hirshfeld dipole vector :     -0.07711794      -0.04862680       0.02796966
  |   Hirshfeld dipole moment :      0.09536270
  |   Hirshfeld second moments:      0.05991095       0.01120549      -0.00381292
  |                                  0.01120549       0.07701534       0.01337991
  |                                 -0.00381292       0.01337991       0.08218919
  ----------------------------------------------------------------------
  | Atom     8: O
  |   Hirshfeld charge        :     -0.27878393
  |   Free atom volume        :     23.95238533
  |   Hirshfeld volume        :     22.61752061
  |   Hirshfeld dipole vector :     -0.04723363      -0.01161256       0.02342426
  |   Hirshfeld dipole moment :      0.05398670
  |   Hirshfeld second moments:     -0.02643793      -0.02578689       0.03629952
  |                                 -0.02578689       0.01858759       0.00179466
  |                                  0.03629952       0.00179466       0.03337110
  ----------------------------------------------------------------------
  | Atom     9: H
  |   Hirshfeld charge        :      0.12664880
  |   Free atom volume        :     10.44207651
  |   Hirshfeld volume        :      7.88265614
  |   Hirshfeld dipole vector :      0.01261329      -0.01322532       0.10426744
  |   Hirshfeld dipole moment :      0.10585699
  |   Hirshfeld second moments:      0.08326998      -0.01273859       0.01051431
  |                                 -0.01273859       0.09113191       0.00452863
  |                                  0.01051431       0.00452863       0.07910558
  ----------------------------------------------------------------------
  | Atom    10: H
  |   Hirshfeld charge        :      0.07833972
  |   Free atom volume        :     10.44207651
  |   Hirshfeld volume        :      9.13741389
  |   Hirshfeld dipole vector :     -0.03164628       0.02415989       0.00974827
  |   Hirshfeld dipole moment :      0.04099044
  |   Hirshfeld second moments:      0.02485876       0.01497543      -0.00766476
  |                                  0.01497543       0.04627974       0.00986272
  |                                 -0.00766476       0.00986272       0.06891009
  ----------------------------------------------------------------------
  | Atom    11: O
  |   Hirshfeld charge        :     -0.22010468
  |   Free atom volume        :     23.95238533
  |   Hirshfeld volume        :     22.06428636
  |   Hirshfeld dipole vector :      0.02900899       0.02337092       0.02506720
  |   Hirshfeld dipole moment :      0.04490085
  |   Hirshfeld second moments:      0.02542607      -0.03137971      -0.04252403
  |                                 -0.03137971       0.03690619      -0.01646292
  |                                 -0.04252403      -0.01646292       0.04472894
  ----------------------------------------------------------------------
  | Atom    12: H
  |   Hirshfeld charge        :      0.13788944
  |   Free atom volume        :     10.44207651
  |   Hirshfeld volume        :      8.30234242
  |   Hirshfeld dipole vector :     -0.04956315       0.06693156       0.06240034
  |   Hirshfeld dipole moment :      0.10406797
  |   Hirshfeld second moments:      0.08256556      -0.00659340      -0.01525296
  |                                 -0.00659340       0.07649593      -0.01237278
  |                                 -0.01525296      -0.01237278       0.08715436
  ----------------------------------------------------------------------
  | Atom    13: H
  |   Hirshfeld charge        :      0.11826860
  |   Free atom volume        :     10.44207651
  |   Hirshfeld volume        :     11.30004804
  |   Hirshfeld dipole vector :      0.03842868       0.04814154      -0.02408896
  |   Hirshfeld dipole moment :      0.06614113
  |   Hirshfeld second moments:      0.03064591      -0.01531440       0.00374562
  |                                 -0.01531440       0.04946306      -0.01246989
  |                                  0.00374562      -0.01246989      -0.00515522
  ----------------------------------------------------------------------


------------------------------------------------------------------------------
  Final output of selected total energy values:

  The following output summarizes some interesting total energy values
  at the end of a run (AFTER all relaxation, molecular dynamics, etc.).

  | Total energy of the DFT / Hartree-Fock s.c.f. calculation      :          -8346.002721188 eV
  | Final zero-broadening corrected energy (caution - metals only) :          -8346.005542136 eV
  | For reference only, the value of 1 Hartree used in FHI-aims is :             27.211384500 eV

  Before relying on these values, please be sure to understand exactly which
  total energy value is referred to by a given number. Different objects may
  all carry the same name 'total energy'. Definitions:

  Total energy of the DFT / Hartree-Fock s.c.f. calculation:
  | Note that this energy does not include ANY quantities calculated after the
  | s.c.f. cycle, in particular not ANY RPA, MP2, etc. many-body perturbation terms.

  Final zero-broadening corrected energy:
  | For metallic systems only, a broadening of the occupation numbers at the Fermi
  | level can be extrapolated back to zero broadening by an electron-gas inspired
  | formula. For all systems that are not real metals, this value can be
  | meaningless and should be avoided.

------------------------------------------------------------------------------

------------------------------------------------------------
          Leaving FHI-aims.
          Date     :  20150727, Time     :  122908.040

          Computational steps:
          | Number of self-consistency cycles          :           16

          Detailed time accounting                     :  max(cpu_time)    wall_clock(cpu1)
          | Total time                                 :       27.441 s          27.487 s
          | Preparation time                           :        0.170 s           0.572 s
          | Grid partitioning                          :        0.124 s           0.124 s
          | Preloading free-atom quantities on grid    :        0.014 s           0.013 s
          | Free-atom superposition energy             :        0.052 s           0.053 s
          | Total time for integrations                :       11.512 s          11.508 s
          | Total time for solution of K.-S. equations :        0.702 s           0.702 s
          | Total time for density & force components  :        9.328 s           9.325 s
          | Total time for mixing                      :        0.174 s           0.175 s
          | Total time for Hartree multipole update    :        0.072 s           0.074 s
          | Total time for Hartree multipole sum       :        4.672 s           4.676 s
          | Total time for total energy evaluation     :        0.004 s           0.005 s
          | Total time for scaled ZORA corrections     :        0.000 s           0.000 s
          | Total time for TS (2009) vdW correction    :        0.039 s           0.040 s

          Have a nice day.
------------------------------------------------------------
