  MPI-parallelism will be employed.
------------------------------------------------------------
          Invoking FHI-aims ...
          Version 081213
          Compiled on 2013/08/29 at 17:41:06 on host generoso.

          When using FHI-aims, please cite the following reference:

          Volker Blum, Ralf Gehrke, Felix Hanke, Paula Havu,
          Ville Havu, Xinguo Ren, Karsten Reuter, and Matthias Scheffler,
          'Ab Initio Molecular Simulations with Numeric Atom-Centered Orbitals: FHI-aims',
          Computer Physics Communications 180, 2175-2196 (2009)

          For any questions about FHI-aims, please visit the aimsclub website
          with its forums and wiki. Contributions to both the forums and the
          wiki are warmly encouraged - they are for you, and everyone is welcome there.

------------------------------------------------------------

  Date     :  20150727, Time     :  125215.031
  Time zero on CPU 1             :   0.409920000000000E-01  s.
  Internal wall clock time zero  :           207233535.031  s.

  Using        8 parallel tasks.
  Task        0 on host gen59 reporting.
  Task        1 on host gen59 reporting.
  Task        2 on host gen59 reporting.
  Task        3 on host gen59 reporting.
  Task        4 on host gen59 reporting.
  Task        5 on host gen59 reporting.
  Task        6 on host gen59 reporting.
  Task        7 on host gen59 reporting.

  Performing system and environment tests:
  | Environment variable OMP_NUM_THREADS correctly set to 1.
  | Checking for scalapack...
  | No scalapack compiled in.

  Obtaining array dimensions for all initial allocations:
  
  -----------------------------------------------------------------------
  Parsing control.in (first pass over file, find array dimensions only).
  The contents of control.in will be repeated verbatim below
  unless switched off by setting 'verbatim_writeout .false.' .
  in the first line of control.in .
  -----------------------------------------------------------------------
  
  #########################################################################################
  #
  #  Volker Blum, FHI 2008 : Test run input file control.in
  #
  #########################################################################################
  #
  #  Physical model
  #
    xc                 rpbe
    spin               none
    relativistic       atomic_zora scalar
    charge             0.
   vdw_correction_hirshfeld
  #
  #  SCF convergence
  #
    occupation_type    gaussian 0.01
    mixer              pulay
      n_max_pulay        10
      charge_mix_param   0.1
    sc_accuracy_rho    5E-5
    sc_accuracy_eev    5E-3
    sc_accuracy_etot   5E-6
    sc_iter_limit      3000
  #
  #  Eigenvalue solver
  #
    KS_method          lapack
      empty_states       8
      basis_threshold    0.e-5
  #
  #  Efficiency
  #
  #   all previous settings are now default, except stratmann still
  #   undecided. Continue to handle stratmann with care, if at all.
  #
  #  partition_type stratmann
    partition_type rho_r2
  #  hartree_partition_type stratmann
  #
  #  Oprions for large clusters (100's of atoms: memory saving / better scaling)
  #
  # for periodic systems:
  #
    density_update_method orbital
    packed_matrix_format none
  #  k_grid 6 6 6
  #  output k_eigenvalue 1
  #  distributed_spline_storage .true.
  #
  #  Relaxation
  #
  #  relax_geometry   bfgs 5.e-3
    sc_accuracy_forces 5.E-4
    final_forces_cleaned .true.
  #
  #  Output options
  #
  #  output mulliken
    output Hirshfeld
  #  output dipole
  
  #harmonic_length_scale 0.001
  
  ################################################################################
  #
  #  FHI-aims code project
  #  VB, Fritz-Haber Institut, 2007
  #
  #  Suggested "safe" defaults for H atom (to be pasted into control.in file)
  #  Basis constructed for a non-relativistic H2 molecule using the
  #  PW-LDA functional.
  #
  ################################################################################
    species        H
  #     global species definitions
      nucleus             1
      cut_pot             4.0  2.0  1.0
      cut_free_atom       finite 8.0
      logarithmic         0.00010000 100.00  1.0123
      basis_dep_cutoff    1d-4  # 1d-4 is safe default - please check 5d-4 if you wish!
      radial_base         24 7.0
      radial_multiplier   2
      angular_grids       specified
        division   0.2783  110
        division   0.3822  194
        division   0.5626  302
  #      division   0.5922  434
  #      division   0.6227  590
  #      division   0.7206  770
        outer_grid  302
      l_hartree           4
  ################################################################################
  #
  #  Definition of "minimal" basis
  #
  ################################################################################
  #     valence basis states
      valence      1  s   1.
  #     ion occupancy
      ion_occ      1  s   0.5
  ################################################################################
  #
  #  Suggested additional basis functions. For production calculations,
  #  uncomment them one after another (the most important basis functions are
  #  listed first).
  #
  ################################################################################
  #  "First tier" - improvements: -1014.90 meV to -62.69 meV
       hydro 2 s 2.1
       hydro 2 p 3.5
  #  "Second tier" - improvements: -12.89 meV to -1.83 meV
       hydro 1 s 0.85
       hydro 2 p 3.7
       hydro 2 s 1.2
       hydro 3 d 7
  #  "Third tier" - improvements: -0.25 meV to -0.12 meV
  #     hydro 4 f 11.2
  #     hydro 3 p 4.8
  #     hydro 4 d 9
  #     hydro 3 s 3.2
  
  ################################################################################
  #
  #  FHI-aims code project
  #  VB, Fritz-Haber Institut, 2007
  #
  #  Suggested "safe" defaults for O atom (to be pasted into control.in file)
  #  All values have been tested for a non-relativistic, non-spinpolarized O2
  #  molecule using the PW-LDA functional. Validity for PBE is expected.
  #
  #  Constructed for dimers: 1.0 A, 1.208 A, 1.5 A, 2.0 A, 3.0 A
  #
  ################################################################################
    species        O
  #     global species definitions
      nucleus             8
      mass                15.9994
      l_hartree           4
      cut_pot             4.0  2.0  1.0
      cut_free_atom       finite 8.0
      basis_dep_cutoff    1d-4  # 1d-4 is safe default - please check 5d-4 if you wish!
      logarithmic         0.00010000 100.00  1.0123
      radial_base         36 7.0
      radial_multiplier   2
       angular_grids specified
        division   0.4087  110
        division   0.5181  194
        division   0.6184  302
  #      division   0.7315  434
  #      division   0.7934  590
  #      division   0.9656  770
  #      division   1.4041  974
  #      outer_grid 974
        outer_grid 302
  ################################################################################
  #
  #  Definition of "minimal" basis
  #
  ################################################################################
  #     valence basis states
      valence      2  s   2.
      valence      2  p   4.
  #     ion occupancy
      ion_occ      2  s   1.
      ion_occ      2  p   3.
  ################################################################################
  #
  #  Suggested additional basis functions. For production calculations,
  #  uncomment them one after another (the most important basis functions are
  #  listed first).
  #
  ################################################################################
  #  "First tier" - improvements: -699.05 meV to -159.38 meV
       hydro 2 p 1.8
       hydro 3 d 7.6
       hydro 3 s 6.4
  #  "Second tier" - improvements: -49.91 meV to -5.39 meV
       hydro 4 f 11.6
       hydro 3 p 6.2
       hydro 3 d 5.6
       hydro 5 g 17.6
       hydro 1 s 0.75
  #  "Third tier" - improvements: -2.83 meV to -0.50 meV
  #     ionic 2 p auto
  #     hydro 4 f 10.8
  #     hydro 4 d 4.7
  #     hydro 2 s 6.8
  #  "Fourth tier" - improvements: -0.40 meV to -0.12 meV
  #     hydro 3 p 5
  #     hydro 3 s 3.3
  #     hydro 5 g 15.6
  #     hydro 4 f 17.6
  #     hydro 4 d 14
  # Further basis functions - -0.08 meV and below
  #     hydro 3 s 2.1
  #     hydro 4 d 11.6
  #     hydro 3 p 16
  #     hydro 2 s 17.2
  
  
  -----------------------------------------------------------------------
  Completed first pass over input file control.in .
  -----------------------------------------------------------------------
  
  
  -----------------------------------------------------------------------
  Parsing geometry.in (first pass over file, find array dimensions only).
  The contents of geometry.in will be repeated verbatim below
  unless switched off by setting 'verbatim_writeout .false.' .
  in the first line of geometry.in .
  -----------------------------------------------------------------------
  
  atom      -4.053030000      0.065001000     -1.525160000  O
  atom      -4.566710000      0.974813000     -1.912820000  H
  atom      -3.067820000      0.330172000     -1.477310000  H
  atom      -4.370360000     -0.049164000     -0.572274000  H
  atom      -5.293160000      2.192130000     -2.328800000  O
  atom      -4.829300000      2.988660000     -1.973850000  H
  atom      -5.428570000      2.328640000     -3.235170000  H
  atom      -4.066610000      4.258280000     -0.900064000  O
  atom      -3.224110000      3.876870000     -0.569443000  H
  atom      -3.737450000      5.116530000     -1.322720000  H
  
  -----------------------------------------------------------------------
  Completed first pass over input file geometry.in .
  -----------------------------------------------------------------------
  
 
  Basic array size parameters: 
  | Number of species                 :        2
  | Number of atoms                   :       10
  | Max. basis fn. angular momentum   :        4
  | Max. atomic/ionic basis occupied n:        2
  | Max. number of basis fn. types    :        2
  | Max. radial fns per species/type  :        8
  | Max. logarithmic grid size        :     1301
  | Max. radial integration grid size :       73
  | Max. angular integration grid size:      302
  | Max. angular grid division number :        8
  | Radial grid for Hartree potential :     1301
  | Number of spin channels           :        1

------------------------------------------------------------
          Reading file control.in.
------------------------------------------------------------
  XC: Using RPBE gradient-corrected functionals.
  Spin treatment: No spin polarisation.
  Scalar relativistic treatment of kinetic energy: on-site free-atom approximation to ZORA.
  Charge =   0.000000E+00: Neutral system requested explicitly.
  Using non-empirical van der Waals correction (Hirshfeld partitioning):
  Occupation type: Gaussian broadening, width =   0.100000E-01 eV.
  Using pulay charge density mixing.
  Pulay mixing - number of memorized iterations:   10
  Charge density mixing - mixing parameter:     0.1000
  Convergence accuracy of self-consistent charge density: 0.5000E-04
  Convergence accuracy of sum of eigenvalues: 0.5000E-02
  Convergence accuracy of total energy: 0.5000E-05
  Maximum number of s.-c. iterations  :  3000
  Kohn-Sham eigenvalues and eigenfunctions calculated by lapack diagonalisation (D&C).
  Number of empty states per atom:        8
  Threshold for basis singularities: 0.0000E+00
  Partition function in integrals calculations: rho / r^2
 Using packed matrix format           0
  Convergence accuracy of forces: 0.5000E-03
  Cleaning forces before final output.
  Hirshfeld charge analysis will be performed.
 
  Reading configuration options for species H                   .
  | Found nuclear charge :   1.0000
  | Found cutoff potl. onset [A], width [A], scale factor :    4.00000    2.00000    1.00000
  | Found cutoff specification for free atom: Cutoff potential begins at    8.00000 A.
  | Found logarithmic grid data [bohr] : 0.1000E-03 0.1000E+03 0.1012E+01
  | Threshold for basis-dependent cutoff potential is   0.100000E-03
  | Found data for basic radial integration grid :    24 points, outermost radius =    7.000 A
  | Found multiplier for basic radial grid :   2
  | Found angular grid specification: user-specified.
  | Specified grid contains     4 separate shells.
  | Check grid settings after all constraints further below.
  | Found l_max for Hartree potential  :   4
  | Found free-atom valence shell :  1 s   1.000
  | No ionic wave fns used. Skipping ion_occ.
  | Found hydrogenic basis function :  2 s   2.100
  | Found hydrogenic basis function :  2 p   3.500
  | Found hydrogenic basis function :  1 s   0.850
  | Found hydrogenic basis function :  2 p   3.700
  | Found hydrogenic basis function :  2 s   1.200
  | Found hydrogenic basis function :  3 d   7.000
  Species H                   : Missing cutoff potential type.
  Defaulting to exp(1/x)/(1-x)^2 type cutoff potential.
  Species H : On-site basis accuracy parameter (for Gram-Schmidt orthonormalisation) not specified.
  Using default value basis_acc =  0.1000000E-03.
  Species H                   : Using default innermost maximum threshold i_radial=  2 for radial functions.
  Species H                   : Basic radial grid will be enhanced according to radial_multiplier =   2, to contain    49 grid points.
 
  Reading configuration options for species O                   .
  | Found nuclear charge :   8.0000
  | Found atomic mass :    15.9994000000000      amu
  | Found l_max for Hartree potential  :   4
  | Found cutoff potl. onset [A], width [A], scale factor :    4.00000    2.00000    1.00000
  | Found cutoff specification for free atom: Cutoff potential begins at    8.00000 A.
  | Threshold for basis-dependent cutoff potential is   0.100000E-03
  | Found logarithmic grid data [bohr] : 0.1000E-03 0.1000E+03 0.1012E+01
  | Found data for basic radial integration grid :    36 points, outermost radius =    7.000 A
  | Found multiplier for basic radial grid :   2
  | Found angular grid specification: user-specified.
  | Specified grid contains     4 separate shells.
  | Check grid settings after all constraints further below.
  | Found free-atom valence shell :  2 s   2.000
  | Found free-atom valence shell :  2 p   4.000
  | No ionic wave fns used. Skipping ion_occ.
  | No ionic wave fns used. Skipping ion_occ.
  | Found hydrogenic basis function :  2 p   1.800
  | Found hydrogenic basis function :  3 d   7.600
  | Found hydrogenic basis function :  3 s   6.400
  | Found hydrogenic basis function :  4 f  11.600
  | Found hydrogenic basis function :  3 p   6.200
  | Found hydrogenic basis function :  3 d   5.600
  | Found hydrogenic basis function :  5 g  17.600
  | Found hydrogenic basis function :  1 s   0.750
  Species O                   : Missing cutoff potential type.
  Defaulting to exp(1/x)/(1-x)^2 type cutoff potential.
  Species O : On-site basis accuracy parameter (for Gram-Schmidt orthonormalisation) not specified.
  Using default value basis_acc =  0.1000000E-03.
  Species O                   : Using default innermost maximum threshold i_radial=  2 for radial functions.
  Species O                   : Basic radial grid will be enhanced according to radial_multiplier =   2, to contain    73 grid points.
 
  Finished reading input file 'control.in'. Consistency checks are next.
 
  Target number of points in a grid batch is not set. Defaulting to  100
  Method for grid partitioning is not set. Defaulting to parallel hash+maxmin partitioning.
  Batch size limit is not set. Defaulting to    200
  By default, will store active basis functions for each batch.
  If in need of memory, prune_basis_once .false. can be used to disable this option.
  communication_type for Hartree potential was not specified.
  Defaulting to calc_hartree .
  Pulay mixer: Number of initial linear mixing iterations not set.
  Defaulting to    0 iterations.
  Work space size for distributed Hartree potential not set.
  Defaulting to   0.200000E+03 MB.
  Algorithm-dependent basis array size parameters:
  | n_max_pulay                         :       10
  Geometry relaxation not requested: no relaxation will be performed.
  Handling of forces: Unphysical translation and rotation will be removed from forces.
  No accuracy limit for integral partition fn. given. Defaulting to 0.1000E-14.
  No threshold value for u(r) in integrations given. Defaulting to 0.1000E-05.
  No accuracy for occupation numbers given. Defaulting to 0.1000E-07.
  No threshold value for occupation numbers given. Defaulting to 0.0000E+00.
  No accuracy for fermi level given. Defaulting to 0.1000E-19.
  Maximum # of iterations to find E_F not set. Defaulting to  200.
  Will not use alltoall communication since running on < 1024 CPUs.
  Partitioning for Hartree potential was not defined. Using partition_type for integrals.
  | Reporting present value of keyword multip_moments_threshold  :       0.10000000E-09
  | This value may affect high angular momentum components of the Hartree potential in periodic systems.
  No q(lm)/r^(l+1) cutoff set for long-range Hartree potential.
  | Using default value of  0.100000E-09 .
  | Verify using the multipole_threshold keyword.
  Defaulting to new monopole extrapolation.
  Density update method: Loop over occupied states selected for charge density update.
------------------------------------------------------------


------------------------------------------------------------
          Reading geometry description geometry.in.
------------------------------------------------------------
  Input structure read successfully.
  The structure contains       10 atoms,  and a total of         31.000 electrons.

  Input geometry:
  | No unit cell requested.
  | Atomic structure:
  |       Atom                x [A]            y [A]            z [A]
  |    1: Species O             -4.053030         0.065001        -1.525160
  |    2: Species H             -4.566710         0.974813        -1.912820
  |    3: Species H             -3.067820         0.330172        -1.477310
  |    4: Species H             -4.370360        -0.049164        -0.572274
  |    5: Species O             -5.293160         2.192130        -2.328800
  |    6: Species H             -4.829300         2.988660        -1.973850
  |    7: Species H             -5.428570         2.328640        -3.235170
  |    8: Species O             -4.066610         4.258280        -0.900064
  |    9: Species H             -3.224110         3.876870        -0.569443
  |   10: Species H             -3.737450         5.116530        -1.322720
  |

  | The smallest distance between any two atoms is         0.92654057 AA.
  |
  | The first atom of this pair is atom number                      5 .
  | The second atom of this pair is atom number                     7 .

  Structure-dependent array size parameters: 
  | Maximum number of distinct radial functions  :       18
  | Maximum number of basis functions            :      222
  | Number of Kohn-Sham states (occupied + empty):       56
------------------------------------------------------------

------------------------------------------------------------
          Preparing all fixed parts of the calculation.
------------------------------------------------------------
  Determining machine precision:
    2.225073858507201E-308
  Setting up grids for atomic and cluster calculations.

  Creating wave function, potential, and density for free atoms.

  Species: H

  List of occupied orbitals and eigenvalues:
    n    l              occ      energy [Ha]    energy [eV]
    1    0           1.0000        -0.241408        -6.5691


  Species: O

  List of occupied orbitals and eigenvalues:
    n    l              occ      energy [Ha]    energy [eV]
    1    0           2.0000       -18.944147      -515.4965
    2    0           2.0000        -0.883529       -24.0421
    2    1           4.0000        -0.330176        -8.9845

  Creating fixed part of basis set: Ionic, confined, hydrogenic.
 
  H                    hydrogenic:
 
  List of hydrogenic basis orbitals: 
    n    l      effective z      eigenvalue [eV]  inner max. [A]     outer max. [A]     outer radius [A]   
    2    0         2.100000       -14.9965           0.193241           1.317192           5.372934
    2    1         3.500000       -41.6672           0.602363           0.602363           4.056010
    1    0         0.850000        -9.8292           0.624864           0.624864           5.372934
    2    1         3.700000       -46.5653           0.573616           0.573616           3.909951
    2    0         1.200000        -4.5995           0.334977           2.228160           5.505921
    3    2         7.000000       -74.0753           0.680692           0.680692           3.769152
 
 
  O                    hydrogenic:
 
  List of hydrogenic basis orbitals: 
    n    l      effective z      eigenvalue [eV]  inner max. [A]     outer max. [A]     outer radius [A]   
    2    1         1.800000       -11.0118           1.178546           1.178546           5.432516
    3    2         7.600000       -87.3182           0.624117           0.624117           3.541422
    3    0         6.400000       -61.9209           0.061166           1.081887           4.306510
    4    3        11.600000      -114.4238           0.731621           0.731621           3.584982
    3    1         6.200000       -58.1113           0.255677           1.030255           4.306510
    3    2         5.600000       -47.4081           0.847222           0.847222           4.413102
    5    4        17.600000      -168.5799           0.749730           0.749730           3.372413
    1    0         0.750000        -7.6499           0.705275           0.705275           5.366508
 

  Adding cutoff potential to free-atom effective potential.
  Creating atomic-like basis functions for current effective potential.

  Species H                   :

  List of atomic basis orbitals and eigenvalues:
    n    l      energy [Ha]    energy [eV]    outer radius [A]
    1    0        -0.241374        -6.5681       5.372934


  Species O                   :

  List of atomic basis orbitals and eigenvalues:
    n    l      energy [Ha]    energy [eV]    outer radius [A]
    1    0       -18.944147      -515.4965       1.415745
    2    0        -0.883529       -24.0421       5.048305
    2    1        -0.330173        -8.9845       5.301302

  Assembling full basis from fixed parts.
  | Species H :   atomic orbital   1 s accepted.
  | Species H :    hydro orbital   2 s accepted.
  | Species H :    hydro orbital   1 s accepted.
  | Species H :    hydro orbital   2 s accepted.
  | Species H :    hydro orbital   2 p accepted.
  | Species H :    hydro orbital   2 p accepted.
  | Species H :    hydro orbital   3 d accepted.
  | Species O :   atomic orbital   1 s accepted.
  | Species O :    hydro orbital   3 s accepted.
  | Species O :   atomic orbital   2 s accepted.
  | Species O :    hydro orbital   1 s accepted.
  | Species O :    hydro orbital   3 p accepted.
  | Species O :   atomic orbital   2 p accepted.
  | Species O :    hydro orbital   2 p accepted.
  | Species O :    hydro orbital   3 d accepted.
  | Species O :    hydro orbital   3 d accepted.
  | Species O :    hydro orbital   4 f accepted.
  | Species O :    hydro orbital   5 g accepted.
 
  Basis size parameters after reduction:
  | Total number of radial functions:       18
  | Total number of basis functions :      222
 
  Testing on-site integration grid accuracy.
  |  Species  Function  <phi|h_atom|phi> (log., in eV)  <phi|h_atom|phi> (rad., in eV)
           1        1                 -6.5683835025                 -6.5684759159
           1        2                 13.3711789951                 13.3708738703
           1        3                 23.6590910787                 23.6532055418
           1        4                 16.2963827186                 16.1870710655 ***
           1        5                 28.7627214838                 28.7627215090
           1        6                 59.5965249172                 59.5965950857
           1        7                 60.2220506392                 60.2220503827
           2        8               -515.4964576505               -515.4964530710
           2        9                 15.3030791347                 15.3030722972
           2       10                -21.7296094581                -21.7296135470
           2       11                 14.2969371730                 14.2969701621
           2       12                 21.0679693190                 21.0679697493
           2       13                 -2.3833606469                 -2.3833613176
           2       14                 13.7067136422                 13.7066766629
           2       15                 45.8013116808                 45.8013116965
           2       16                 52.2309815402                 52.2309831494
           2       17                 85.4120732416                 85.4120732763
           2       18                142.1019167745                142.1019167817
 * Note: Onsite integrals marked "***" above are less accurate than
 * onsite_accuracy_threshold =    0.03000 eV. Usually, this is harmless.
 * When in doubt, tighten the "radial" and/or "radial_multiplier" flags to check.

  Preparing densities etc. for the partition functions (integrals / Hartree potential).

  Preparations completed.
  max(cpu_time)          :      0.171 s.
  Wall clock time (cpu1) :      0.471 s.
------------------------------------------------------------

------------------------------------------------------------
          Begin self-consistency loop: Initialization.

          Date     :  20150727, Time     :  125215.535
------------------------------------------------------------

  Initializing index lists of integration centers etc. from given atomic structure:
  | Number of centers in hartree potential         :        10
  | Number of centers in hartree multipole         :        10
  | Number of centers in electron density summation:        10
  | Number of centers in basis integrals           :        10
  | Number of centers in integrals                 :        10
  Partitioning the integration grid into batches with parallel hashing+maxmin method.
  | Number of batches:     1401
  | Maximal batch size:     196
  | Minimal batch size:      49
  | Average batch size:      92.520
  | Standard deviation of batch sizes:      24.539

  Integration load balanced across     8 MPI tasks.
  Work distribution over tasks is as follows:
  Task     0 has      16199 integration points.
  Task     1 has      16240 integration points.
  Task     2 has      16213 integration points.
  Task     3 has      16172 integration points.
  Task     4 has      16201 integration points.
  Task     5 has      16192 integration points.
  Task     6 has      16212 integration points.
  Task     7 has      16191 integration points.
  Initializing partition tables, free-atom densities, potentials, etc. across the integration grid (initialize_grid_storage).
  | Net number of integration points:   129620
  | of which are non-zero points    :   129128
  Obtaining max. number of non-zero basis functions in each batch (get_n_compute_maxes).
  | Maximal number of non-zero basis functions:      221 in task     0
  | Maximal number of non-zero basis functions:      221 in task     1
  | Maximal number of non-zero basis functions:      221 in task     2
  | Maximal number of non-zero basis functions:      221 in task     3
  | Maximal number of non-zero basis functions:      221 in task     4
  | Maximal number of non-zero basis functions:      221 in task     5
  | Maximal number of non-zero basis functions:      221 in task     6
  | Maximal number of non-zero basis functions:      221 in task     7
  Integrating Hamiltonian matrix: batch-based integration.
  Time summed over all CPUs for integration: real work        3.115 s, elapsed        3.251 s
  Integrating overlap matrix.
  Time summed over all CPUs for integration: real work        1.614 s, elapsed        1.681 s

  Updating Kohn-Sham eigenvalues, eigenvectors, occupation numbers, and Fermi level.
  Solving generalized eigenproblem
  Updating Kohn-Sham eigenvalues and eigenfunctions.
  Transforming overlap matrix and checking for singularities.
  Overlap matrix is nonsingular:
  | Lowest eigenvalue:  0.307090E-03
  Solving real generalised eigenvalue problem by standard LAPACK (fast)
  Determining occupation numbers for Kohn-Sham eigenstates.
  | Chemical potential (Fermi level) in eV                 : -.26425409E+01
  | Error in electron count due to remaining E_F inaccuracy: -.46895821E-12
  | Maximum occupation number of highest empty state:  0.00E+00

  Writing Kohn-Sham eigenvalues.

  State    Occupation    Eigenvalue [Ha]    Eigenvalue [eV]
      1       2.00000         -19.064959         -518.78393
      2       2.00000         -19.064883         -518.78186
      3       2.00000         -19.042841         -518.18207
      4       2.00000          -1.127949          -30.69305
      5       2.00000          -1.113020          -30.28681
      6       2.00000          -1.086598          -29.56785
      7       2.00000          -0.653752          -17.78949
      8       2.00000          -0.627479          -17.07456
      9       2.00000          -0.620492          -16.88444
     10       2.00000          -0.605882          -16.48690
     11       2.00000          -0.528964          -14.39383
     12       2.00000          -0.508216          -13.82925
     13       2.00000          -0.487314          -13.26050
     14       2.00000          -0.452782          -12.32082
     15       2.00000          -0.433501          -11.79617
     16       1.00000          -0.097112           -2.64254
     17       0.00000          -0.067408           -1.83427
     18       0.00000          -0.040366           -1.09842
     19       0.00000          -0.020613           -0.56092
     20       0.00000          -0.003177           -0.08645
     21       0.00000           0.040113            1.09153
     22       0.00000           0.048291            1.31407
     23       0.00000           0.071505            1.94576
     24       0.00000           0.077635            2.11257
     25       0.00000           0.088170            2.39924
     26       0.00000           0.093629            2.54777
     27       0.00000           0.101501            2.76197
     28       0.00000           0.113788            3.09632
     29       0.00000           0.124932            3.39957
     30       0.00000           0.134588            3.66233
     31       0.00000           0.158407            4.31047
     32       0.00000           0.166437            4.52898
     33       0.00000           0.199341            5.42435
     34       0.00000           0.223012            6.06846
     35       0.00000           0.245906            6.69143
     36       0.00000           0.261867            7.12575
     37       0.00000           0.281264            7.65357
     38       0.00000           0.288831            7.85948
     39       0.00000           0.319086            8.68278
     40       0.00000           0.353414            9.61687
     41       0.00000           0.355126            9.66348
     42       0.00000           0.365476            9.94509
     43       0.00000           0.384979           10.47581
     44       0.00000           0.396625           10.79272
     45       0.00000           0.414683           11.28411
     46       0.00000           0.439891           11.97004
     47       0.00000           0.453291           12.33467
     48       0.00000           0.485600           13.21385
     49       0.00000           0.489902           13.33092
     50       0.00000           0.541719           14.74092
     51       0.00000           0.573313           15.60065
     52       0.00000           0.616765           16.78302
     53       0.00000           0.668587           18.19317
     54       0.00000           0.673669           18.33145
     55       0.00000           0.738163           20.08644
     56       0.00000           0.747774           20.34797

  Highest occupied state (VBM) at    -11.79617329 eV
  | Occupation number:      2.00000000

  Lowest unoccupied state (CBM) at    -2.64254092 eV
  | Occupation number:      1.00000000

  Overall HOMO-LUMO gap:      9.15363237 eV.
  Calculating total energy contributions from superposition of free atom densities.

  Total energy components:
  | Sum of eigenvalues            :        -130.93437473 Ha       -3562.90561494 eV
  | XC energy correction          :         -27.70797315 Ha        -753.97231117 eV
  | XC potential correction       :          35.41542831 Ha         963.70283705 eV
  | Free-atom electrostatic energy:        -107.06837211 Ha       -2913.47864138 eV
  | Hartree energy correction     :           0.00000000 Ha           0.00000000 eV
  | van der Waals energy corr.    :           0.00000000 Ha           0.00000000 eV
  | Entropy correction            :          -0.00010367 Ha          -0.00282095 eV
  | ---------------------------
  | Total energy                  :        -230.29529168 Ha       -6266.65373044 eV
  | Total energy, T -> 0          :        -230.29539535 Ha       -6266.65655139 eV  <-- do not rely on this value for anything but (periodic) metals
  | Electronic free energy        :        -230.29549902 Ha       -6266.65937233 eV

  Derived energy quantities:
  | Kinetic energy                :         228.19814624 Ha        6209.58749946 eV
  | Electrostatic energy          :        -430.78546476 Ha      -11722.26891872 eV
  | Energy correction for multipole
  | error in Hartree potential    :           0.00000000 Ha           0.00000000 eV
  | Sum of eigenvalues per atom                           :        -356.29056149 eV
  | Total energy (T->0) per atom                          :        -626.66565514 eV  <-- do not rely on this value for anything but (periodic) metals
  | Electronic free energy per atom                       :        -626.66593723 eV
  Initialize hartree_potential_storage
  Max. number of atoms included in rho_multipole:           10

  End scf initialization - timings             :  max(cpu_time)    wall_clock(cpu1)
  | Time for scf. initialization               :        0.886 s           0.885 s
  | Boundary condition initialization          :        0.000 s           0.000 s
  | Integration                                :        0.618 s           0.618 s
  | Solution of K.-S. eqns.                    :        0.075 s           0.075 s
  | Grid partitioning                          :        0.084 s           0.084 s
  | Preloading free-atom quantities on grid    :        0.014 s           0.013 s
  | Free-atom superposition energy             :        0.033 s           0.034 s
  | Total energy evaluation                    :        0.000 s           0.000 s
------------------------------------------------------------

------------------------------------------------------------
          Begin self-consistency iteration #    1

  Date     :  20150727, Time     :  125216.421
------------------------------------------------------------
  Evaluating new KS density.
  Integration grid: deviation in total charge (<rho> - N_e) =  -4.440892E-13
  Pulay mixing of updated and previous charge densities.

  Evaluating partitioned Hartree potential by multipole expansion.
  | Analytical far-field extrapolation by fixed multipoles:
  | Hartree multipole sum: apparent total charge =  -0.327203E-06
  Summing up the Hartree potential.
  Time summed over all CPUs for potential: real work        1.147 s, elapsed        1.154 s
  | RMS charge density error from multipole expansion :   0.130743E-02

  Integrating Hamiltonian matrix: batch-based integration.
  Time summed over all CPUs for integration: real work        3.100 s, elapsed        3.222 s

  Updating Kohn-Sham eigenvalues, eigenvectors, occupation numbers, and Fermi level.
  Solving generalized eigenproblem
  Updating Kohn-Sham eigenvalues and eigenfunctions.
  Solving real generalised eigenvalue problem by standard LAPACK (fast)
  Determining occupation numbers for Kohn-Sham eigenstates.
  | Chemical potential (Fermi level) in eV                 : -.24868019E+01
  | Error in electron count due to remaining E_F inaccuracy: 0.25579538E-12
  | Maximum occupation number of highest empty state:  0.00E+00

  Writing Kohn-Sham eigenvalues.

  State    Occupation    Eigenvalue [Ha]    Eigenvalue [eV]
      1       2.00000         -19.013927         -517.39527
      2       2.00000         -18.992296         -516.80666
      3       2.00000         -18.968472         -516.15839
      4       2.00000          -1.100862          -29.95599
      5       2.00000          -1.081793          -29.43709
      6       2.00000          -1.049562          -28.56005
      7       2.00000          -0.622750          -16.94589
      8       2.00000          -0.608524          -16.55879
      9       2.00000          -0.598612          -16.28907
     10       2.00000          -0.574170          -15.62397
     11       2.00000          -0.497597          -13.54031
     12       2.00000          -0.472736          -12.86381
     13       2.00000          -0.459979          -12.51667
     14       2.00000          -0.417454          -11.35949
     15       2.00000          -0.394927          -10.74651
     16       1.00000          -0.091388           -2.48680
     17       0.00000          -0.060934           -1.65811
     18       0.00000          -0.033992           -0.92496
     19       0.00000          -0.016788           -0.45682
     20       0.00000           0.003667            0.09978
     21       0.00000           0.048235            1.31254
     22       0.00000           0.052951            1.44086
     23       0.00000           0.077915            2.12017
     24       0.00000           0.083419            2.26995
     25       0.00000           0.094784            2.57922
     26       0.00000           0.103580            2.81857
     27       0.00000           0.106531            2.89887
     28       0.00000           0.124127            3.37768
     29       0.00000           0.132724            3.61160
     30       0.00000           0.141931            3.86215
     31       0.00000           0.164110            4.46566
     32       0.00000           0.172466            4.69304
     33       0.00000           0.205197            5.58369
     34       0.00000           0.227732            6.19689
     35       0.00000           0.251383            6.84047
     36       0.00000           0.268198            7.29805
     37       0.00000           0.286028            7.78321
     38       0.00000           0.294336            8.00929
     39       0.00000           0.325522            8.85791
     40       0.00000           0.358214            9.74750
     41       0.00000           0.362331            9.85952
     42       0.00000           0.373168           10.15441
     43       0.00000           0.391916           10.66459
     44       0.00000           0.399883           10.88138
     45       0.00000           0.421168           11.46056
     46       0.00000           0.446843           12.15922
     47       0.00000           0.461303           12.55271
     48       0.00000           0.492840           13.41086
     49       0.00000           0.496844           13.51982
     50       0.00000           0.549830           14.96164
     51       0.00000           0.581854           15.83304
     52       0.00000           0.626729           17.05417
     53       0.00000           0.678503           18.46301
     54       0.00000           0.681719           18.55051
     55       0.00000           0.744995           20.27236
     56       0.00000           0.754439           20.52933

  Highest occupied state (VBM) at     -2.48680191 eV
  | Occupation number:      1.00000000

  Lowest unoccupied state (CBM) at    -1.65810710 eV
  | Occupation number:      0.00000000

  Overall HOMO-LUMO gap:      0.82869481 eV.

  Total energy components:
  | Sum of eigenvalues            :        -129.79871390 Ha       -3532.00271144 eV
  | XC energy correction          :         -27.83233835 Ha        -757.35646029 eV
  | XC potential correction       :          35.57771522 Ha         968.11888861 eV
  | Free-atom electrostatic energy:        -107.06837211 Ha       -2913.47864138 eV
  | Hartree energy correction     :          -1.10858721 Ha         -30.16619295 eV
  | van der Waals energy corr.    :           0.00000000 Ha           0.00000000 eV
  | Entropy correction            :          -0.00010367 Ha          -0.00282095 eV
  | ---------------------------
  | Total energy                  :        -230.23029635 Ha       -6264.88511745 eV
  | Total energy, T -> 0          :        -230.23040001 Ha       -6264.88793840 eV  <-- do not rely on this value for anything but (periodic) metals
  | Electronic free energy        :        -230.23050368 Ha       -6264.89075934 eV

  Derived energy quantities:
  | Kinetic energy                :         228.97071001 Ha        6230.61002946 eV
  | Electrostatic energy          :        -431.36866802 Ha      -11738.13868661 eV
  | Energy correction for multipole
  | error in Hartree potential    :           0.00038810 Ha           0.01056078 eV
  | Sum of eigenvalues per atom                           :        -353.20027114 eV
  | Total energy (T->0) per atom                          :        -626.48879384 eV  <-- do not rely on this value for anything but (periodic) metals
  | Electronic free energy per atom                       :        -626.48907593 eV

  Self-consistency convergence accuracy:
  | Change of charge density      : 0.4771E+00
  | Change of sum of eigenvalues  : 0.3090E+02 eV
  | Change of total energy        : 0.1769E+01 eV

  End self-consistency iteration #     1       :  max(cpu_time)    wall_clock(cpu1)
  | Time for this iteration                    :        0.841 s           0.840 s
  | Charge density update                      :        0.267 s           0.267 s
  | Density mixing                             :        0.002 s           0.002 s
  | Hartree multipole update                   :        0.004 s           0.004 s
  | Hartree multipole summation                :        0.145 s           0.145 s
  | Integration                                :        0.404 s           0.403 s
  | Solution of K.-S. eqns.                    :        0.018 s           0.019 s
  | Total energy evaluation                    :        0.001 s           0.000 s
------------------------------------------------------------

------------------------------------------------------------
          Begin self-consistency iteration #    2

  Date     :  20150727, Time     :  125217.261
------------------------------------------------------------
  Evaluating new KS density.
  Integration grid: deviation in total charge (<rho> - N_e) =   2.593481E-13
  Pulay mixing of updated and previous charge densities.

  Evaluating partitioned Hartree potential by multipole expansion.
  | Analytical far-field extrapolation by fixed multipoles:
  | Hartree multipole sum: apparent total charge =  -0.206115E-05
  Summing up the Hartree potential.
  Time summed over all CPUs for potential: real work        1.147 s, elapsed        1.154 s
  | RMS charge density error from multipole expansion :   0.531531E-02

  Integrating Hamiltonian matrix: batch-based integration.
  Time summed over all CPUs for integration: real work        3.104 s, elapsed        3.238 s

  Updating Kohn-Sham eigenvalues, eigenvectors, occupation numbers, and Fermi level.
  Solving generalized eigenproblem
  Updating Kohn-Sham eigenvalues and eigenfunctions.
  Solving real generalised eigenvalue problem by standard LAPACK (fast)
  Determining occupation numbers for Kohn-Sham eigenstates.
  | Chemical potential (Fermi level) in eV                 : -.21230212E+01
  | Error in electron count due to remaining E_F inaccuracy: 0.53255178E-11
  | Maximum occupation number of highest empty state:  0.00E+00

  Highest occupied state (VBM) at     -2.12302123 eV
  | Occupation number:      1.00000000

  Lowest unoccupied state (CBM) at    -1.24030501 eV
  | Occupation number:      0.00000000

  Overall HOMO-LUMO gap:      0.88271622 eV.

  Total energy components:
  | Sum of eigenvalues            :        -127.09023748 Ha       -3458.30131839 eV
  | XC energy correction          :         -28.14549653 Ha        -765.87792815 eV
  | XC potential correction       :          35.98524033 Ha         979.20821102 eV
  | Free-atom electrostatic energy:        -107.06837211 Ha       -2913.47864138 eV
  | Hartree energy correction     :          -3.83983625 Ha        -104.48726057 eV
  | van der Waals energy corr.    :           0.00000000 Ha           0.00000000 eV
  | Entropy correction            :          -0.00010367 Ha          -0.00282095 eV
  | ---------------------------
  | Total energy                  :        -230.15870205 Ha       -6262.93693747 eV
  | Total energy, T -> 0          :        -230.15880572 Ha       -6262.93975842 eV  <-- do not rely on this value for anything but (periodic) metals
  | Electronic free energy        :        -230.15890938 Ha       -6262.94257937 eV

  Derived energy quantities:
  | Kinetic energy                :         230.59091889 Ha        6274.69815613 eV
  | Electrostatic energy          :        -432.60412440 Ha      -11771.75716545 eV
  | Energy correction for multipole
  | error in Hartree potential    :           0.00103574 Ha           0.02818399 eV
  | Sum of eigenvalues per atom                           :        -345.83013184 eV
  | Total energy (T->0) per atom                          :        -626.29397584 eV  <-- do not rely on this value for anything but (periodic) metals
  | Electronic free energy per atom                       :        -626.29425794 eV

  Self-consistency convergence accuracy:
  | Change of charge density      : 0.3635E+00
  | Change of sum of eigenvalues  : 0.7370E+02 eV
  | Change of total energy        : 0.1948E+01 eV

  End self-consistency iteration #     2       :  max(cpu_time)    wall_clock(cpu1)
  | Time for this iteration                    :        0.841 s           0.841 s
  | Charge density update                      :        0.264 s           0.265 s
  | Density mixing                             :        0.004 s           0.003 s
  | Hartree multipole update                   :        0.004 s           0.004 s
  | Hartree multipole summation                :        0.144 s           0.145 s
  | Integration                                :        0.406 s           0.405 s
  | Solution of K.-S. eqns.                    :        0.018 s           0.018 s
  | Total energy evaluation                    :        0.001 s           0.000 s
------------------------------------------------------------

------------------------------------------------------------
          Begin self-consistency iteration #    3

  Date     :  20150727, Time     :  125218.102
------------------------------------------------------------
  Evaluating new KS density.
  Integration grid: deviation in total charge (<rho> - N_e) =   5.329071E-12
  Pulay mixing of updated and previous charge densities.

  Evaluating partitioned Hartree potential by multipole expansion.
  | Analytical far-field extrapolation by fixed multipoles:
  | Hartree multipole sum: apparent total charge =  -0.206167E-05
  Summing up the Hartree potential.
  Time summed over all CPUs for potential: real work        1.148 s, elapsed        1.154 s
  | RMS charge density error from multipole expansion :   0.106750E-01

  Integrating Hamiltonian matrix: batch-based integration.
  Time summed over all CPUs for integration: real work        3.102 s, elapsed        3.235 s

  Updating Kohn-Sham eigenvalues, eigenvectors, occupation numbers, and Fermi level.
  Solving generalized eigenproblem
  Updating Kohn-Sham eigenvalues and eigenfunctions.
  Solving real generalised eigenvalue problem by standard LAPACK (fast)
  Determining occupation numbers for Kohn-Sham eigenstates.
  | Chemical potential (Fermi level) in eV                 : -.20791587E+01
  | Error in electron count due to remaining E_F inaccuracy: 0.00000000E+00
  | Maximum occupation number of highest empty state:  0.00E+00

  Highest occupied state (VBM) at     -2.07915871 eV
  | Occupation number:      1.00000000

  Lowest unoccupied state (CBM) at    -2.07915871 eV
  | Occupation number:      1.00000000

  Overall HOMO-LUMO gap:      0.00000000 eV.

  Total energy components:
  | Sum of eigenvalues            :        -127.24738060 Ha       -3462.57740006 eV
  | XC energy correction          :         -28.14890064 Ha        -765.97055844 eV
  | XC potential correction       :          35.98429093 Ha         979.18237656 eV
  | Free-atom electrostatic energy:        -107.06837211 Ha       -2913.47864138 eV
  | Hartree energy correction     :          -3.67799146 Ha        -100.08323971 eV
  | van der Waals energy corr.    :           0.00000000 Ha           0.00000000 eV
  | Entropy correction            :          -0.00010367 Ha          -0.00282095 eV
  | ---------------------------
  | Total energy                  :        -230.15835387 Ha       -6262.92746303 eV
  | Total energy, T -> 0          :        -230.15845754 Ha       -6262.93028398 eV  <-- do not rely on this value for anything but (periodic) metals
  | Electronic free energy        :        -230.15856121 Ha       -6262.93310493 eV

  Derived energy quantities:
  | Kinetic energy                :         229.68779399 Ha        6250.12287733 eV
  | Electrostatic energy          :        -431.69724723 Ha      -11747.07978193 eV
  | Energy correction for multipole
  | error in Hartree potential    :          -0.00063262 Ha          -0.01721450 eV
  | Sum of eigenvalues per atom                           :        -346.25774001 eV
  | Total energy (T->0) per atom                          :        -626.29302840 eV  <-- do not rely on this value for anything but (periodic) metals
  | Electronic free energy per atom                       :        -626.29331049 eV

  Self-consistency convergence accuracy:
  | Change of charge density      : 0.1779E+00
  | Change of sum of eigenvalues  : -.4276E+01 eV
  | Change of total energy        : 0.9474E-02 eV

  End self-consistency iteration #     3       :  max(cpu_time)    wall_clock(cpu1)
  | Time for this iteration                    :        0.840 s           0.841 s
  | Charge density update                      :        0.263 s           0.264 s
  | Density mixing                             :        0.004 s           0.004 s
  | Hartree multipole update                   :        0.004 s           0.003 s
  | Hartree multipole summation                :        0.145 s           0.145 s
  | Integration                                :        0.405 s           0.405 s
  | Solution of K.-S. eqns.                    :        0.018 s           0.018 s
  | Total energy evaluation                    :        0.000 s           0.000 s
------------------------------------------------------------

------------------------------------------------------------
          Begin self-consistency iteration #    4

  Date     :  20150727, Time     :  125218.943
------------------------------------------------------------
  Evaluating new KS density.
  Integration grid: deviation in total charge (<rho> - N_e) =  -3.552714E-15
  Pulay mixing of updated and previous charge densities.

  Evaluating partitioned Hartree potential by multipole expansion.
  | Analytical far-field extrapolation by fixed multipoles:
  | Hartree multipole sum: apparent total charge =  -0.239572E-05
  Summing up the Hartree potential.
  Time summed over all CPUs for potential: real work        1.147 s, elapsed        1.153 s
  | RMS charge density error from multipole expansion :   0.136858E-01

  Integrating Hamiltonian matrix: batch-based integration.
  Time summed over all CPUs for integration: real work        3.088 s, elapsed        3.223 s

  Updating Kohn-Sham eigenvalues, eigenvectors, occupation numbers, and Fermi level.
  Solving generalized eigenproblem
  Updating Kohn-Sham eigenvalues and eigenfunctions.
  Solving real generalised eigenvalue problem by standard LAPACK (fast)
  Determining occupation numbers for Kohn-Sham eigenstates.
  | Chemical potential (Fermi level) in eV                 : -.20204624E+01
  | Error in electron count due to remaining E_F inaccuracy: 0.00000000E+00
  | Maximum occupation number of highest empty state:  0.00E+00

  Highest occupied state (VBM) at     -2.02046241 eV
  | Occupation number:      1.00000000

  Lowest unoccupied state (CBM) at    -2.02046241 eV
  | Occupation number:      1.00000000

  Overall HOMO-LUMO gap:      0.00000000 eV.

  Total energy components:
  | Sum of eigenvalues            :        -126.73469779 Ha       -3448.62659097 eV
  | XC energy correction          :         -28.22622446 Ha        -768.07464675 eV
  | XC potential correction       :          36.08302331 Ha         981.86902108 eV
  | Free-atom electrostatic energy:        -107.06837211 Ha       -2913.47864138 eV
  | Hartree energy correction     :          -4.21053621 Ha        -114.57451983 eV
  | van der Waals energy corr.    :           0.00000000 Ha           0.00000000 eV
  | Entropy correction            :          -0.00010367 Ha          -0.00282095 eV
  | ---------------------------
  | Total energy                  :        -230.15680727 Ha       -6262.88537785 eV
  | Total energy, T -> 0          :        -230.15691094 Ha       -6262.88819880 eV  <-- do not rely on this value for anything but (periodic) metals
  | Electronic free energy        :        -230.15701460 Ha       -6262.89101975 eV

  Derived energy quantities:
  | Kinetic energy                :         229.66839333 Ha        6249.59495836 eV
  | Electrostatic energy          :        -431.59897614 Ha      -11744.40568946 eV
  | Energy correction for multipole
  | error in Hartree potential    :          -0.00122770 Ha          -0.03340748 eV
  | Sum of eigenvalues per atom                           :        -344.86265910 eV
  | Total energy (T->0) per atom                          :        -626.28881988 eV  <-- do not rely on this value for anything but (periodic) metals
  | Electronic free energy per atom                       :        -626.28910197 eV

  Self-consistency convergence accuracy:
  | Change of charge density      : 0.7478E-01
  | Change of sum of eigenvalues  : 0.1395E+02 eV
  | Change of total energy        : 0.4209E-01 eV

  End self-consistency iteration #     4       :  max(cpu_time)    wall_clock(cpu1)
  | Time for this iteration                    :        0.840 s           0.840 s
  | Charge density update                      :        0.264 s           0.264 s
  | Density mixing                             :        0.005 s           0.005 s
  | Hartree multipole update                   :        0.004 s           0.004 s
  | Hartree multipole summation                :        0.145 s           0.145 s
  | Integration                                :        0.403 s           0.404 s
  | Solution of K.-S. eqns.                    :        0.018 s           0.018 s
  | Total energy evaluation                    :        0.000 s           0.000 s
------------------------------------------------------------

------------------------------------------------------------
          Begin self-consistency iteration #    5

  Date     :  20150727, Time     :  125219.783
------------------------------------------------------------
  Evaluating new KS density.
  Integration grid: deviation in total charge (<rho> - N_e) =   1.776357E-14
  Pulay mixing of updated and previous charge densities.

  Evaluating partitioned Hartree potential by multipole expansion.
  | Analytical far-field extrapolation by fixed multipoles:
  | Hartree multipole sum: apparent total charge =  -0.239802E-05
  Summing up the Hartree potential.
  Time summed over all CPUs for potential: real work        1.147 s, elapsed        1.153 s
  | RMS charge density error from multipole expansion :   0.138592E-01

  Integrating Hamiltonian matrix: batch-based integration.
  Time summed over all CPUs for integration: real work        3.091 s, elapsed        3.222 s

  Updating Kohn-Sham eigenvalues, eigenvectors, occupation numbers, and Fermi level.
  Solving generalized eigenproblem
  Updating Kohn-Sham eigenvalues and eigenfunctions.
  Solving real generalised eigenvalue problem by standard LAPACK (fast)
  Determining occupation numbers for Kohn-Sham eigenstates.
  | Chemical potential (Fermi level) in eV                 : -.20616089E+01
  | Error in electron count due to remaining E_F inaccuracy: 0.42632564E-13
  | Maximum occupation number of highest empty state:  0.00E+00

  Highest occupied state (VBM) at     -2.06160893 eV
  | Occupation number:      1.00000000

  Lowest unoccupied state (CBM) at    -1.15042389 eV
  | Occupation number:      0.00000000

  Overall HOMO-LUMO gap:      0.91118504 eV.

  Total energy components:
  | Sum of eigenvalues            :        -126.79912130 Ha       -3450.37964394 eV
  | XC energy correction          :         -28.21969333 Ha        -767.89692555 eV
  | XC potential correction       :          36.07418656 Ha         981.62856104 eV
  | Free-atom electrostatic energy:        -107.06837211 Ha       -2913.47864138 eV
  | Hartree energy correction     :          -4.14362114 Ha        -112.75366797 eV
  | van der Waals energy corr.    :           0.00000000 Ha           0.00000000 eV
  | Entropy correction            :          -0.00010367 Ha          -0.00282095 eV
  | ---------------------------
  | Total energy                  :        -230.15662131 Ha       -6262.88031780 eV
  | Total energy, T -> 0          :        -230.15672498 Ha       -6262.88313874 eV  <-- do not rely on this value for anything but (periodic) metals
  | Electronic free energy        :        -230.15682865 Ha       -6262.88595969 eV

  Derived energy quantities:
  | Kinetic energy                :         229.63170672 Ha        6248.59666483 eV
  | Electrostatic energy          :        -431.56863470 Ha      -11743.58005707 eV
  | Energy correction for multipole
  | error in Hartree potential    :          -0.00140060 Ha          -0.03811240 eV
  | Sum of eigenvalues per atom                           :        -345.03796439 eV
  | Total energy (T->0) per atom                          :        -626.28831387 eV  <-- do not rely on this value for anything but (periodic) metals
  | Electronic free energy per atom                       :        -626.28859597 eV

  Self-consistency convergence accuracy:
  | Change of charge density      : 0.2125E-01
  | Change of sum of eigenvalues  : -.1753E+01 eV
  | Change of total energy        : 0.5060E-02 eV

  End self-consistency iteration #     5       :  max(cpu_time)    wall_clock(cpu1)
  | Time for this iteration                    :        0.840 s           0.840 s
  | Charge density update                      :        0.263 s           0.263 s
  | Density mixing                             :        0.006 s           0.006 s
  | Hartree multipole update                   :        0.004 s           0.004 s
  | Hartree multipole summation                :        0.145 s           0.145 s
  | Integration                                :        0.403 s           0.403 s
  | Solution of K.-S. eqns.                    :        0.018 s           0.019 s
  | Total energy evaluation                    :        0.000 s           0.000 s
------------------------------------------------------------

------------------------------------------------------------
          Begin self-consistency iteration #    6

  Date     :  20150727, Time     :  125220.623
------------------------------------------------------------
  Evaluating new KS density.
  Integration grid: deviation in total charge (<rho> - N_e) =   5.329071E-14
  Pulay mixing of updated and previous charge densities.

  Evaluating partitioned Hartree potential by multipole expansion.
  | Analytical far-field extrapolation by fixed multipoles:
  | Hartree multipole sum: apparent total charge =  -0.240704E-05
  Summing up the Hartree potential.
  Time summed over all CPUs for potential: real work        1.147 s, elapsed        1.153 s
  | RMS charge density error from multipole expansion :   0.141573E-01

  Integrating Hamiltonian matrix: batch-based integration.
  Time summed over all CPUs for integration: real work        3.091 s, elapsed        3.216 s

  Updating Kohn-Sham eigenvalues, eigenvectors, occupation numbers, and Fermi level.
  Solving generalized eigenproblem
  Updating Kohn-Sham eigenvalues and eigenfunctions.
  Solving real generalised eigenvalue problem by standard LAPACK (fast)
  Determining occupation numbers for Kohn-Sham eigenstates.
  | Chemical potential (Fermi level) in eV                 : -.20680459E+01
  | Error in electron count due to remaining E_F inaccuracy: -.59506888E-09
  | Maximum occupation number of highest empty state:  0.00E+00

  Highest occupied state (VBM) at     -7.75410786 eV
  | Occupation number:      2.00000000

  Lowest unoccupied state (CBM) at    -2.06804589 eV
  | Occupation number:      1.00000000

  Overall HOMO-LUMO gap:      5.68606196 eV.

  Total energy components:
  | Sum of eigenvalues            :        -126.79122696 Ha       -3450.16482791 eV
  | XC energy correction          :         -28.22274723 Ha        -767.98002650 eV
  | XC potential correction       :          36.07792291 Ha         981.73023215 eV
  | Free-atom electrostatic energy:        -107.06837211 Ha       -2913.47864138 eV
  | Hartree energy correction     :          -4.15223183 Ha        -112.98797691 eV
  | van der Waals energy corr.    :           0.00000000 Ha           0.00000000 eV
  | Entropy correction            :          -0.00010367 Ha          -0.00282095 eV
  | ---------------------------
  | Total energy                  :        -230.15665522 Ha       -6262.88124054 eV
  | Total energy, T -> 0          :        -230.15675889 Ha       -6262.88406148 eV  <-- do not rely on this value for anything but (periodic) metals
  | Electronic free energy        :        -230.15686256 Ha       -6262.88688243 eV

  Derived energy quantities:
  | Kinetic energy                :         229.62384350 Ha        6248.38269582 eV
  | Electrostatic energy          :        -431.55775149 Ha      -11743.28390986 eV
  | Energy correction for multipole
  | error in Hartree potential    :          -0.00152872 Ha          -0.04159865 eV
  | Sum of eigenvalues per atom                           :        -345.01648279 eV
  | Total energy (T->0) per atom                          :        -626.28840615 eV  <-- do not rely on this value for anything but (periodic) metals
  | Electronic free energy per atom                       :        -626.28868824 eV

  Self-consistency convergence accuracy:
  | Change of charge density      : 0.6567E-02
  | Change of sum of eigenvalues  : 0.2148E+00 eV
  | Change of total energy        : -.9227E-03 eV

  End self-consistency iteration #     6       :  max(cpu_time)    wall_clock(cpu1)
  | Time for this iteration                    :        0.840 s           0.840 s
  | Charge density update                      :        0.263 s           0.263 s
  | Density mixing                             :        0.007 s           0.007 s
  | Hartree multipole update                   :        0.004 s           0.004 s
  | Hartree multipole summation                :        0.145 s           0.145 s
  | Integration                                :        0.402 s           0.402 s
  | Solution of K.-S. eqns.                    :        0.019 s           0.018 s
  | Total energy evaluation                    :        0.000 s           0.000 s
------------------------------------------------------------

------------------------------------------------------------
          Begin self-consistency iteration #    7

  Date     :  20150727, Time     :  125221.463
------------------------------------------------------------
  Evaluating new KS density.
  Integration grid: deviation in total charge (<rho> - N_e) =  -5.950476E-10
  Pulay mixing of updated and previous charge densities.

  Evaluating partitioned Hartree potential by multipole expansion.
  | Analytical far-field extrapolation by fixed multipoles:
  | Hartree multipole sum: apparent total charge =  -0.235457E-05
  Summing up the Hartree potential.
  Time summed over all CPUs for potential: real work        1.147 s, elapsed        1.153 s
  | RMS charge density error from multipole expansion :   0.141135E-01

  Integrating Hamiltonian matrix: batch-based integration.
  Time summed over all CPUs for integration: real work        3.087 s, elapsed        3.220 s

  Updating Kohn-Sham eigenvalues, eigenvectors, occupation numbers, and Fermi level.
  Solving generalized eigenproblem
  Updating Kohn-Sham eigenvalues and eigenfunctions.
  Solving real generalised eigenvalue problem by standard LAPACK (fast)
  Determining occupation numbers for Kohn-Sham eigenstates.
  | Chemical potential (Fermi level) in eV                 : -.20776262E+01
  | Error in electron count due to remaining E_F inaccuracy: 0.22765150E-08
  | Maximum occupation number of highest empty state:  0.00E+00

  Highest occupied state (VBM) at     -2.07762624 eV
  | Occupation number:      1.00000000

  Lowest unoccupied state (CBM) at    -1.17318469 eV
  | Occupation number:      0.00000000

  Overall HOMO-LUMO gap:      0.90444155 eV.

  Total energy components:
  | Sum of eigenvalues            :        -126.82380616 Ha       -3451.05135321 eV
  | XC energy correction          :         -28.21896325 Ha        -767.87705920 eV
  | XC potential correction       :          36.07297659 Ha         981.59563612 eV
  | Free-atom electrostatic energy:        -107.06837211 Ha       -2913.47864138 eV
  | Hartree energy correction     :          -4.11847224 Ha        -112.06933160 eV
  | van der Waals energy corr.    :           0.00000000 Ha           0.00000000 eV
  | Entropy correction            :          -0.00010367 Ha          -0.00282095 eV
  | ---------------------------
  | Total energy                  :        -230.15663717 Ha       -6262.88074927 eV
  | Total energy, T -> 0          :        -230.15674084 Ha       -6262.88357022 eV  <-- do not rely on this value for anything but (periodic) metals
  | Electronic free energy        :        -230.15684451 Ha       -6262.88639116 eV

  Derived energy quantities:
  | Kinetic energy                :         229.64478638 Ha        6248.95258051 eV
  | Electrostatic energy          :        -431.58246030 Ha      -11743.95627058 eV
  | Energy correction for multipole
  | error in Hartree potential    :          -0.00159137 Ha          -0.04330346 eV
  | Sum of eigenvalues per atom                           :        -345.10513532 eV
  | Total energy (T->0) per atom                          :        -626.28835702 eV  <-- do not rely on this value for anything but (periodic) metals
  | Electronic free energy per atom                       :        -626.28863912 eV

  Self-consistency convergence accuracy:
  | Change of charge density      : 0.5253E-02
  | Change of sum of eigenvalues  : -.8865E+00 eV
  | Change of total energy        : 0.4913E-03 eV

  End self-consistency iteration #     7       :  max(cpu_time)    wall_clock(cpu1)
  | Time for this iteration                    :        0.842 s           0.842 s
  | Charge density update                      :        0.263 s           0.263 s
  | Density mixing                             :        0.008 s           0.008 s
  | Hartree multipole update                   :        0.004 s           0.004 s
  | Hartree multipole summation                :        0.145 s           0.145 s
  | Integration                                :        0.403 s           0.403 s
  | Solution of K.-S. eqns.                    :        0.018 s           0.018 s
  | Total energy evaluation                    :        0.000 s           0.001 s
------------------------------------------------------------

------------------------------------------------------------
          Begin self-consistency iteration #    8

  Date     :  20150727, Time     :  125222.305
------------------------------------------------------------
  Evaluating new KS density.
  Integration grid: deviation in total charge (<rho> - N_e) =   2.276504E-09
  Pulay mixing of updated and previous charge densities.

  Evaluating partitioned Hartree potential by multipole expansion.
  | Analytical far-field extrapolation by fixed multipoles:
  | Hartree multipole sum: apparent total charge =  -0.232630E-05
  Summing up the Hartree potential.
  Time summed over all CPUs for potential: real work        1.147 s, elapsed        1.154 s
  | RMS charge density error from multipole expansion :   0.141315E-01

  Integrating Hamiltonian matrix: batch-based integration.
  Time summed over all CPUs for integration: real work        3.086 s, elapsed        3.207 s

  Updating Kohn-Sham eigenvalues, eigenvectors, occupation numbers, and Fermi level.
  Solving generalized eigenproblem
  Updating Kohn-Sham eigenvalues and eigenfunctions.
  Solving real generalised eigenvalue problem by standard LAPACK (fast)
  Determining occupation numbers for Kohn-Sham eigenstates.
  | Chemical potential (Fermi level) in eV                 : -.20872349E+01
  | Error in electron count due to remaining E_F inaccuracy: 0.15347723E-11
  | Maximum occupation number of highest empty state:  0.00E+00

  Highest occupied state (VBM) at     -2.08723492 eV
  | Occupation number:      1.00000000

  Lowest unoccupied state (CBM) at    -1.17980017 eV
  | Occupation number:      0.00000000

  Overall HOMO-LUMO gap:      0.90743475 eV.

  Total energy components:
  | Sum of eigenvalues            :        -126.84616628 Ha       -3451.65980313 eV
  | XC energy correction          :         -28.21684539 Ha        -767.81942925 eV
  | XC potential correction       :          36.07016120 Ha         981.51902541 eV
  | Free-atom electrostatic energy:        -107.06837211 Ha       -2913.47864138 eV
  | Hartree energy correction     :          -4.09541422 Ha        -111.44189093 eV
  | van der Waals energy corr.    :           0.00000000 Ha           0.00000000 eV
  | Entropy correction            :          -0.00010367 Ha          -0.00282095 eV
  | ---------------------------
  | Total energy                  :        -230.15663680 Ha       -6262.88073927 eV
  | Total energy, T -> 0          :        -230.15674047 Ha       -6262.88356022 eV  <-- do not rely on this value for anything but (periodic) metals
  | Electronic free energy        :        -230.15684414 Ha       -6262.88638116 eV

  Derived energy quantities:
  | Kinetic energy                :         229.64990926 Ha        6249.09198122 eV
  | Electrostatic energy          :        -431.58970067 Ha      -11744.15329124 eV
  | Energy correction for multipole
  | error in Hartree potential    :          -0.00165102 Ha          -0.04492650 eV
  | Sum of eigenvalues per atom                           :        -345.16598031 eV
  | Total energy (T->0) per atom                          :        -626.28835602 eV  <-- do not rely on this value for anything but (periodic) metals
  | Electronic free energy per atom                       :        -626.28863812 eV

  Self-consistency convergence accuracy:
  | Change of charge density      : 0.2298E-02
  | Change of sum of eigenvalues  : -.6084E+00 eV
  | Change of total energy        : 0.1000E-04 eV

  End self-consistency iteration #     8       :  max(cpu_time)    wall_clock(cpu1)
  | Time for this iteration                    :        0.841 s           0.841 s
  | Charge density update                      :        0.264 s           0.263 s
  | Density mixing                             :        0.008 s           0.009 s
  | Hartree multipole update                   :        0.004 s           0.004 s
  | Hartree multipole summation                :        0.145 s           0.145 s
  | Integration                                :        0.402 s           0.401 s
  | Solution of K.-S. eqns.                    :        0.018 s           0.019 s
  | Total energy evaluation                    :        0.000 s           0.000 s
------------------------------------------------------------

------------------------------------------------------------
          Begin self-consistency iteration #    9

  Date     :  20150727, Time     :  125223.146
------------------------------------------------------------
  Evaluating new KS density.
  Integration grid: deviation in total charge (<rho> - N_e) =   1.545430E-12
  Pulay mixing of updated and previous charge densities.

  Evaluating partitioned Hartree potential by multipole expansion.
  | Analytical far-field extrapolation by fixed multipoles:
  | Hartree multipole sum: apparent total charge =  -0.229738E-05
  Summing up the Hartree potential.
  Time summed over all CPUs for potential: real work        1.147 s, elapsed        1.153 s
  | RMS charge density error from multipole expansion :   0.141400E-01

  Integrating Hamiltonian matrix: batch-based integration.
  Time summed over all CPUs for integration: real work        3.079 s, elapsed        3.204 s

  Updating Kohn-Sham eigenvalues, eigenvectors, occupation numbers, and Fermi level.
  Solving generalized eigenproblem
  Updating Kohn-Sham eigenvalues and eigenfunctions.
  Solving real generalised eigenvalue problem by standard LAPACK (fast)
  Determining occupation numbers for Kohn-Sham eigenstates.
  | Chemical potential (Fermi level) in eV                 : -.20881830E+01
  | Error in electron count due to remaining E_F inaccuracy: 0.12629897E-09
  | Maximum occupation number of highest empty state:  0.00E+00

  Highest occupied state (VBM) at     -2.08818297 eV
  | Occupation number:      1.00000000

  Lowest unoccupied state (CBM) at    -1.17863787 eV
  | Occupation number:      0.00000000

  Overall HOMO-LUMO gap:      0.90954510 eV.

  Total energy components:
  | Sum of eigenvalues            :        -126.84486640 Ha       -3451.62443159 eV
  | XC energy correction          :         -28.21718090 Ha        -767.82855888 eV
  | XC potential correction       :          36.07059335 Ha         981.53078483 eV
  | Free-atom electrostatic energy:        -107.06837211 Ha       -2913.47864138 eV
  | Hartree energy correction     :          -4.09681086 Ha        -111.47989549 eV
  | van der Waals energy corr.    :           0.00000000 Ha           0.00000000 eV
  | Entropy correction            :          -0.00010367 Ha          -0.00282095 eV
  | ---------------------------
  | Total energy                  :        -230.15663692 Ha       -6262.88074251 eV
  | Total energy, T -> 0          :        -230.15674059 Ha       -6262.88356346 eV  <-- do not rely on this value for anything but (periodic) metals
  | Electronic free energy        :        -230.15684426 Ha       -6262.88638441 eV

  Derived energy quantities:
  | Kinetic energy                :         229.65307785 Ha        6249.17820306 eV
  | Electrostatic energy          :        -431.59253388 Ha      -11744.23038669 eV
  | Energy correction for multipole
  | error in Hartree potential    :          -0.00166051 Ha          -0.04518485 eV
  | Sum of eigenvalues per atom                           :        -345.16244316 eV
  | Total energy (T->0) per atom                          :        -626.28835635 eV  <-- do not rely on this value for anything but (periodic) metals
  | Electronic free energy per atom                       :        -626.28863844 eV

  Self-consistency convergence accuracy:
  | Change of charge density      : 0.7457E-03
  | Change of sum of eigenvalues  : 0.3537E-01 eV
  | Change of total energy        : -.3245E-05 eV

  End self-consistency iteration #     9       :  max(cpu_time)    wall_clock(cpu1)
  | Time for this iteration                    :        0.842 s           0.841 s
  | Charge density update                      :        0.263 s           0.263 s
  | Density mixing                             :        0.010 s           0.010 s
  | Hartree multipole update                   :        0.004 s           0.004 s
  | Hartree multipole summation                :        0.145 s           0.145 s
  | Integration                                :        0.401 s           0.401 s
  | Solution of K.-S. eqns.                    :        0.018 s           0.018 s
  | Total energy evaluation                    :        0.000 s           0.000 s
------------------------------------------------------------

------------------------------------------------------------
          Begin self-consistency iteration #   10

  Date     :  20150727, Time     :  125223.988
------------------------------------------------------------
  Evaluating new KS density.
  Integration grid: deviation in total charge (<rho> - N_e) =   1.262919E-10
  Pulay mixing of updated and previous charge densities.

  Evaluating partitioned Hartree potential by multipole expansion.
  | Analytical far-field extrapolation by fixed multipoles:
  | Hartree multipole sum: apparent total charge =  -0.228244E-05
  Summing up the Hartree potential.
  Time summed over all CPUs for potential: real work        1.147 s, elapsed        1.153 s
  | RMS charge density error from multipole expansion :   0.141396E-01

  Integrating Hamiltonian matrix: batch-based integration.
  Time summed over all CPUs for integration: real work        3.078 s, elapsed        3.206 s

  Updating Kohn-Sham eigenvalues, eigenvectors, occupation numbers, and Fermi level.
  Solving generalized eigenproblem
  Updating Kohn-Sham eigenvalues and eigenfunctions.
  Solving real generalised eigenvalue problem by standard LAPACK (fast)
  Determining occupation numbers for Kohn-Sham eigenstates.
  | Chemical potential (Fermi level) in eV                 : -.20886830E+01
  | Error in electron count due to remaining E_F inaccuracy: -.20618813E-08
  | Maximum occupation number of highest empty state:  0.00E+00

  Highest occupied state (VBM) at     -7.83093224 eV
  | Occupation number:      2.00000000

  Lowest unoccupied state (CBM) at    -2.08868302 eV
  | Occupation number:      1.00000000

  Overall HOMO-LUMO gap:      5.74224922 eV.

  Total energy components:
  | Sum of eigenvalues            :        -126.84824904 Ha       -3451.71647791 eV
  | XC energy correction          :         -28.21690270 Ha        -767.82098879 eV
  | XC potential correction       :          36.07023024 Ha         981.52090415 eV
  | Free-atom electrostatic energy:        -107.06837211 Ha       -2913.47864138 eV
  | Hartree energy correction     :          -4.09334337 Ha        -111.38554033 eV
  | van der Waals energy corr.    :           0.00000000 Ha           0.00000000 eV
  | Entropy correction            :          -0.00010367 Ha          -0.00282095 eV
  | ---------------------------
  | Total energy                  :        -230.15663699 Ha       -6262.88074425 eV
  | Total energy, T -> 0          :        -230.15674065 Ha       -6262.88356520 eV  <-- do not rely on this value for anything but (periodic) metals
  | Electronic free energy        :        -230.15684432 Ha       -6262.88638614 eV

  Derived energy quantities:
  | Kinetic energy                :         229.65385378 Ha        6249.19931715 eV
[...]
  | Atom     7: H
  |   Hirshfeld charge        :      0.12786058
  |   Free atom volume        :     10.44207651
  |   Hirshfeld volume        :      9.83044286
  |   Hirshfeld dipole vector :     -0.02014784       0.01262739      -0.08004697
  |   Hirshfeld dipole moment :      0.08350392
  |   Hirshfeld second moments:      0.03976799       0.00418473       0.01312800
  |                                  0.00418473       0.07429162       0.00536209
  |                                  0.01312800       0.00536209       0.05089223
  ----------------------------------------------------------------------
  | Atom     8: O
  |   Hirshfeld charge        :     -0.25372526
  |   Free atom volume        :     23.95238533
  |   Hirshfeld volume        :     22.94977393
  |   Hirshfeld dipole vector :      0.02243070      -0.00107707      -0.02822237
  |   Hirshfeld dipole moment :      0.03606658
  |   Hirshfeld second moments:      0.00988571       0.00834426       0.03706508
  |                                  0.00834426       0.04065290      -0.02503998
  |                                  0.03706508      -0.02503998      -0.01902146
  ----------------------------------------------------------------------
  | Atom     9: H
  |   Hirshfeld charge        :      0.07670139
  |   Free atom volume        :     10.44207651
  |   Hirshfeld volume        :     12.83836316
  |   Hirshfeld dipole vector :      0.03580202       0.01010478       0.01499340
  |   Hirshfeld dipole moment :      0.04010852
  |   Hirshfeld second moments:     -0.01625995       0.04285996       0.01422207
  |                                  0.04285996      -0.00289756       0.01072196
  |                                  0.01422207       0.01072196      -0.00924124
  ----------------------------------------------------------------------
  | Atom    10: H
  |   Hirshfeld charge        :      0.12076883
  |   Free atom volume        :     10.44207651
  |   Hirshfeld volume        :      9.52917009
  |   Hirshfeld dipole vector :      0.01881334       0.08207629      -0.03753844
  |   Hirshfeld dipole moment :      0.09219324
  |   Hirshfeld second moments:      0.05977999      -0.00187690       0.01733798
  |                                 -0.00187690       0.06731383      -0.00855360
  |                                  0.01733798      -0.00855360       0.04294793
  ----------------------------------------------------------------------


  Total energy components:
  | Sum of eigenvalues            :        -126.84691106 Ha       -3451.68006953 eV
  | XC energy correction          :         -28.21702200 Ha        -767.82423518 eV
  | XC potential correction       :          36.07039101 Ha         981.52527874 eV
  | Free-atom electrostatic energy:        -107.06837211 Ha       -2913.47864138 eV
  | Hartree energy correction     :          -4.09472297 Ha        -111.42308120 eV
  | van der Waals energy corr.    :          -0.00123679 Ha          -0.03365489 eV
  | Entropy correction            :          -0.00010367 Ha          -0.00282095 eV
  | ---------------------------
  | Total energy                  :        -230.15787394 Ha       -6262.91440343 eV
  | Total energy, T -> 0          :        -230.15797761 Ha       -6262.91722438 eV  <-- do not rely on this value for anything but (periodic) metals
  | Electronic free energy        :        -230.15808127 Ha       -6262.92004533 eV

  Derived energy quantities:
  | Kinetic energy                :         229.65359719 Ha        6249.19233495 eV
  | Electrostatic energy          :        -431.59321233 Ha      -11744.24884832 eV
  | Energy correction for multipole
  | error in Hartree potential    :          -0.00167501 Ha          -0.04557943 eV
  | Sum of eigenvalues per atom                           :        -345.16800695 eV
  | Total energy (T->0) per atom                          :        -626.29172244 eV  <-- do not rely on this value for anything but (periodic) metals
  | Electronic free energy per atom                       :        -626.29200453 eV

  atomic forces [eV/Ang]:
  -----------------------
  atom #    1
   Hellmann-Feynman + Multipole  : -.183031E+01 -.852122E+01 -.707073E+01
   Pulay + GGA                   : 0.147242E+01 0.912973E+01 0.665720E+01
   Van der Waals               : 0.367604E-02 -.283207E-02 0.387487E-02
   ----------------------------------------------------------------
   Total forces(   1)            : -.354217E+00 0.605674E+00 -.409658E+00
  atom #    2
   Hellmann-Feynman + Multipole  : 0.240925E-01 -.257354E+00 0.761658E-01
   Pulay + GGA                   : -.268713E-01 0.572692E-01 -.344533E-01
   Van der Waals               : -.367862E-03 -.742416E-03 -.450074E-03
   ----------------------------------------------------------------
   Total forces(   2)            : -.314667E-02 -.200827E+00 0.412625E-01
  atom #    3
   Hellmann-Feynman + Multipole  : -.298745E-01 -.949952E-01 0.921325E-01
   Pulay + GGA                   : 0.178209E+00 0.602945E-01 0.114464E-01
   Van der Waals               : 0.301072E-02 -.325065E-02 0.144180E-02
   ----------------------------------------------------------------
   Total forces(   3)            : 0.151346E+00 -.379514E-01 0.105021E+00
  atom #    4
   Hellmann-Feynman + Multipole  : 0.102763E+00 -.985082E-02 -.290913E-01
   Pulay + GGA                   : -.563507E-01 -.285316E-01 0.166711E+00
   Van der Waals               : 0.127595E-02 0.114334E-03 0.151011E-02
   ----------------------------------------------------------------
   Total forces(   4)            : 0.476884E-01 -.382680E-01 0.139130E+00
  atom #    5
   Hellmann-Feynman + Multipole  : -.619828E+01 -.677202E+01 0.886485E+01
   Pulay + GGA                   : 0.656262E+01 0.585744E+01 -.625198E+01
   Van der Waals               : -.531129E-02 0.192980E-03 -.494434E-02
   ----------------------------------------------------------------
   Total forces(   5)            : 0.359028E+00 -.914385E+00 0.260792E+01
  atom #    6
   Hellmann-Feynman + Multipole  : 0.754642E-01 0.256940E+00 0.249188E+00
   Pulay + GGA                   : 0.510107E-01 0.744697E-01 0.117224E-01
   Van der Waals               : -.282037E-02 0.704119E-02 -.221610E-02
   ----------------------------------------------------------------
   Total forces(   6)            : 0.123655E+00 0.338451E+00 0.258695E+00
  atom #    7
   Hellmann-Feynman + Multipole  : -.313973E+00 0.297288E+00 -.256058E+01
   Pulay + GGA                   : -.256156E-01 0.224478E-01 -.123965E+00
   Van der Waals               : -.194461E-02 0.435482E-02 -.204023E-02
   ----------------------------------------------------------------
   Total forces(   7)            : -.341533E+00 0.324090E+00 -.268659E+01
  atom #    8
   Hellmann-Feynman + Multipole  : -.125745E+02 -.289741E+01 0.287345E+01
   Pulay + GGA                   : 0.133341E+02 0.412630E+01 -.350568E+01
   Van der Waals               : 0.237188E-02 -.234488E-02 0.229784E-02
   ----------------------------------------------------------------
   Total forces(   8)            : 0.762038E+00 0.122654E+01 -.629930E+00
  atom #    9
   Hellmann-Feynman + Multipole  : -.255594E+00 -.114074E+00 0.274035E-01
   Pulay + GGA                   : 0.128509E+00 -.675930E-01 0.349639E-01
   Van der Waals               : 0.125361E-02 0.124339E-02 0.164637E-02
   ----------------------------------------------------------------
   Total forces(   9)            : -.125831E+00 -.180424E+00 0.640138E-01
  atom #   10
   Hellmann-Feynman + Multipole  : -.660247E+00 -.123968E+01 0.570257E+00
   Pulay + GGA                   : 0.484076E-01 0.115929E+00 -.633444E-01
   Van der Waals               : -.114407E-02 -.377670E-02 -.112024E-02
   ----------------------------------------------------------------
   Total forces(  10)            : -.612983E+00 -.112753E+01 0.505793E+00
  Timings for vdw_correction_hirshfeld (Tkatchenko-Scheffler 2009):
  | CPU time:        2.132 s, Wall clock time:        2.131 s.
  Removing unitary transformations (pure translations, rotations) from forces on atoms.
  Atomic forces before filtering:
  | Net force on center of mass :  0.604470E-02 -.462408E-02 -.434217E-02 eV/A
  | Net torque on center of mass:  0.452375E-02 0.728088E-02 -.994221E-02 eV
  Atomic forces after filtering:
  | Net force on center of mass :  0.000000E+00 0.000000E+00 0.267609E-15 eV/A
  | Net torque on center of mass:  -.472042E-16 0.566451E-15 -.377634E-15 eV
 
  Energy and forces in a compact form:
  | Total energy uncorrected      :         -0.626291440343368E+04 eV
  | Total energy corrected        :         -0.626291722438160E+04 eV  <-- do not rely on this value for anything but (periodic) metals
  | Electronic free energy        :         -0.626292004532952E+04 eV
  Total atomic forces (unitary forces cleaned) [eV/Ang]:
  |   1         -0.354340915985052E+00          0.606192993077658E+00         -0.408860495725312E+00
  |   2         -0.325646768092788E-02         -0.200473835376529E+00          0.416513234585961E-01
  |   3          0.151129240402860E+00         -0.371904456516947E-01          0.106380455173352E+00
  |   4          0.470197752152061E-01         -0.377195494690853E-01          0.139749692305946E+00
  |   5          0.358875861244298E+00         -0.914252726805701E+00          0.260773854347530E+01
  |   6          0.123098076176584E+00          0.338734364087141E+00          0.258703066853474E+00
  |   7         -0.341173910992447E+00          0.324090418745085E+00         -0.268686609292359E+01
  |   8          0.760532765205384E+00          0.122712787666932E+01         -0.629604728413136E+00
  |   9         -0.127443434883987E+00         -0.179600024888198E+00          0.648873169629467E-01
  |  10         -0.614440988701918E+00         -0.112690907038799E+01          0.506220918832418E+00
 
  ------------------------------------ 
  Start decomposition of the XC Energy 
  ------------------------------------ 
  Hartree-Fock part   :          0.000000000 Ha              0.000000000 eV
  ------------------------------------ 
  X Energy            :        -27.214817743 Ha           -740.552869700 eV
  C Energy GGA        :         -1.002204260 Ha            -27.271365477 eV
  Total XC Energy     :        -28.217022003 Ha           -767.824235177 eV
  LDA X and C from self-consistent density 
  X Energy LDA        :        -24.529884266 Ha           -667.492112495 eV
  C Energy LDA        :         -2.017500574 Ha            -54.898983849 eV
  ------------------------------------ 
  End decomposition of the XC Energy 
  ------------------------------------ 
  Performing Hirshfeld analysis of fragment charges and moments.
  ----------------------------------------------------------------------
  | Atom     1: O
  |   Hirshfeld charge        :     -0.14037468
  |   Free atom volume        :     23.95238533
  |   Hirshfeld volume        :     24.11759714
  |   Hirshfeld dipole vector :     -0.01515602       0.03532792       0.01029684
  |   Hirshfeld dipole moment :      0.03979688
  |   Hirshfeld second moments:      0.03675683      -0.00966750      -0.01137090
  |                                 -0.00966750      -0.00537524      -0.03321271
  |                                 -0.01137090      -0.03321271       0.01629937
  ----------------------------------------------------------------------
  | Atom     2: H
  |   Hirshfeld charge        :      0.09976616
  |   Free atom volume        :     10.44207651
  |   Hirshfeld volume        :     11.08584432
  |   Hirshfeld dipole vector :     -0.01604421       0.01268766      -0.00635332
  |   Hirshfeld dipole moment :      0.02141864
  |   Hirshfeld second moments:      0.01461180       0.01076188       0.00230374
  |                                  0.01076188       0.01303491       0.00511542
  |                                  0.00230374       0.00511542       0.02895551
  ----------------------------------------------------------------------
  | Atom     3: H
  |   Hirshfeld charge        :      0.02206530
  |   Free atom volume        :     10.44207651
  |   Hirshfeld volume        :     18.26848881
  |   Hirshfeld dipole vector :     -0.06259605      -0.00300907      -0.02587002
  |   Hirshfeld dipole moment :      0.06779806
  |   Hirshfeld second moments:     -0.14941120      -0.02702796      -0.02277046
  |                                 -0.02702796      -0.08379038      -0.01179897
  |                                 -0.02277046      -0.01179897      -0.11967953
  ----------------------------------------------------------------------
  | Atom     4: H
  |   Hirshfeld charge        :      0.06550997
  |   Free atom volume        :     10.44207651
  |   Hirshfeld volume        :     16.03272147
  |   Hirshfeld dipole vector :     -0.03637497       0.00426839      -0.02117422
  |   Hirshfeld dipole moment :      0.04230491
  |   Hirshfeld second moments:     -0.05142580      -0.00832091      -0.01857680
  |                                 -0.00832091      -0.04937215      -0.01733268
  |                                 -0.01857680      -0.01733268      -0.10188034
  ----------------------------------------------------------------------
  | Atom     5: O
  |   Hirshfeld charge        :     -0.21632501
  |   Free atom volume        :     23.95238533
  |   Hirshfeld volume        :     22.03621063
  |   Hirshfeld dipole vector :      0.02610980       0.00846305      -0.01845447
  |   Hirshfeld dipole moment :      0.03307434
  |   Hirshfeld second moments:     -0.00005560      -0.00145097       0.03295634
  |                                 -0.00145097       0.06037796       0.00420536
  |                                  0.03295634       0.00420536       0.06322027
  ----------------------------------------------------------------------
  | Atom     6: H
  |   Hirshfeld charge        :      0.09776348
  |   Free atom volume        :     10.44207651
  |   Hirshfeld volume        :      9.95507130
  |   Hirshfeld dipole vector :      0.00814880       0.03709182       0.00617514
  |   Hirshfeld dipole moment :      0.03847517
  |   Hirshfeld second moments:      0.02374565      -0.01440797       0.00770100
  |                                 -0.01440797       0.04303159      -0.01600017
  |                                  0.00770100      -0.01600017       0.04798710
  ----------------------------------------------------------------------
  | Atom     7: H
  |   Hirshfeld charge        :      0.12786058
  |   Free atom volume        :     10.44207651
  |   Hirshfeld volume        :      9.83044286
  |   Hirshfeld dipole vector :     -0.02014784       0.01262739      -0.08004697
  |   Hirshfeld dipole moment :      0.08350392
  |   Hirshfeld second moments:      0.03976799       0.00418473       0.01312800
  |                                  0.00418473       0.07429162       0.00536209
  |                                  0.01312800       0.00536209       0.05089223
  ----------------------------------------------------------------------
  | Atom     8: O
  |   Hirshfeld charge        :     -0.25372526
  |   Free atom volume        :     23.95238533
  |   Hirshfeld volume        :     22.94977393
  |   Hirshfeld dipole vector :      0.02243070      -0.00107707      -0.02822237
  |   Hirshfeld dipole moment :      0.03606658
  |   Hirshfeld second moments:      0.00988571       0.00834426       0.03706508
  |                                  0.00834426       0.04065290      -0.02503998
  |                                  0.03706508      -0.02503998      -0.01902146
  ----------------------------------------------------------------------
  | Atom     9: H
  |   Hirshfeld charge        :      0.07670139
  |   Free atom volume        :     10.44207651
  |   Hirshfeld volume        :     12.83836316
  |   Hirshfeld dipole vector :      0.03580202       0.01010478       0.01499340
  |   Hirshfeld dipole moment :      0.04010852
  |   Hirshfeld second moments:     -0.01625995       0.04285996       0.01422207
  |                                  0.04285996      -0.00289756       0.01072196
  |                                  0.01422207       0.01072196      -0.00924124
  ----------------------------------------------------------------------
  | Atom    10: H
  |   Hirshfeld charge        :      0.12076883
  |   Free atom volume        :     10.44207651
  |   Hirshfeld volume        :      9.52917009
  |   Hirshfeld dipole vector :      0.01881334       0.08207629      -0.03753844
  |   Hirshfeld dipole moment :      0.09219324
  |   Hirshfeld second moments:      0.05977999      -0.00187690       0.01733798
  |                                 -0.00187690       0.06731383      -0.00855360
  |                                  0.01733798      -0.00855360       0.04294793
  ----------------------------------------------------------------------


------------------------------------------------------------------------------
  Final output of selected total energy values:

  The following output summarizes some interesting total energy values
  at the end of a run (AFTER all relaxation, molecular dynamics, etc.).

  | Total energy of the DFT / Hartree-Fock s.c.f. calculation      :          -6262.914403434 eV
  | Final zero-broadening corrected energy (caution - metals only) :          -6262.917224382 eV
  | For reference only, the value of 1 Hartree used in FHI-aims is :             27.211384500 eV

  Before relying on these values, please be sure to understand exactly which
  total energy value is referred to by a given number. Different objects may
  all carry the same name 'total energy'. Definitions:

  Total energy of the DFT / Hartree-Fock s.c.f. calculation:
  | Note that this energy does not include ANY quantities calculated after the
  | s.c.f. cycle, in particular not ANY RPA, MP2, etc. many-body perturbation terms.

  Final zero-broadening corrected energy:
  | For metallic systems only, a broadening of the occupation numbers at the Fermi
  | level can be extrapolated back to zero broadening by an electron-gas inspired
  | formula. For all systems that are not real metals, this value can be
  | meaningless and should be avoided.

------------------------------------------------------------------------------

------------------------------------------------------------
          Leaving FHI-aims.
          Date     :  20150727, Time     :  125230.648

          Computational steps:
          | Number of self-consistency cycles          :           15

          Detailed time accounting                     :  max(cpu_time)    wall_clock(cpu1)
          | Total time                                 :       15.590 s          15.617 s
          | Preparation time                           :        0.171 s           0.471 s
          | Grid partitioning                          :        0.084 s           0.084 s
          | Preloading free-atom quantities on grid    :        0.014 s           0.013 s
          | Free-atom superposition energy             :        0.033 s           0.034 s
          | Total time for integrations                :        6.659 s           6.658 s
          | Total time for solution of K.-S. equations :        0.346 s           0.349 s
          | Total time for density & force components  :        5.001 s           5.002 s
          | Total time for mixing                      :        0.121 s           0.120 s
          | Total time for Hartree multipole update    :        0.059 s           0.058 s
          | Total time for Hartree multipole sum       :        2.648 s           2.651 s
          | Total time for total energy evaluation     :        0.006 s           0.003 s
          | Total time for scaled ZORA corrections     :        0.000 s           0.000 s
          | Total time for TS (2009) vdW correction    :        0.024 s           0.024 s

          Have a nice day.
------------------------------------------------------------
