  MPI-parallelism will be employed.
------------------------------------------------------------
          Invoking FHI-aims ...
          Version 081213
          Compiled on 2013/08/29 at 17:41:06 on host generoso.

          When using FHI-aims, please cite the following reference:

          Volker Blum, Ralf Gehrke, Felix Hanke, Paula Havu,
          Ville Havu, Xinguo Ren, Karsten Reuter, and Matthias Scheffler,
          'Ab Initio Molecular Simulations with Numeric Atom-Centered Orbitals: FHI-aims',
          Computer Physics Communications 180, 2175-2196 (2009)

          For any questions about FHI-aims, please visit the aimsclub website
          with its forums and wiki. Contributions to both the forums and the
          wiki are warmly encouraged - they are for you, and everyone is welcome there.

------------------------------------------------------------

  Date     :  20150727, Time     :  120848.544
  Time zero on CPU 1             :   0.459920000000000E-01  s.
  Internal wall clock time zero  :           207230928.544  s.

  Using        8 parallel tasks.
  Task        0 on host gen59 reporting.
  Task        1 on host gen59 reporting.
  Task        2 on host gen59 reporting.
  Task        3 on host gen59 reporting.
  Task        4 on host gen59 reporting.
  Task        5 on host gen59 reporting.
  Task        6 on host gen59 reporting.
  Task        7 on host gen59 reporting.

  Performing system and environment tests:
  | Environment variable OMP_NUM_THREADS correctly set to 1.
  | Checking for scalapack...
  | No scalapack compiled in.

  Obtaining array dimensions for all initial allocations:
  
  -----------------------------------------------------------------------
  Parsing control.in (first pass over file, find array dimensions only).
  The contents of control.in will be repeated verbatim below
  unless switched off by setting 'verbatim_writeout .false.' .
  in the first line of control.in .
  -----------------------------------------------------------------------
  
  #########################################################################################
  #
  #  Volker Blum, FHI 2008 : Test run input file control.in
  #
  #########################################################################################
  #
  #  Physical model
  #
    xc                 rpbe
    spin               none
    relativistic       atomic_zora scalar
    charge             0.
   vdw_correction_hirshfeld
  #
  #  SCF convergence
  #
    occupation_type    gaussian 0.01
    mixer              pulay
      n_max_pulay        10
      charge_mix_param   0.1
    sc_accuracy_rho    5E-5
    sc_accuracy_eev    5E-3
    sc_accuracy_etot   5E-6
    sc_iter_limit      3000
  #
  #  Eigenvalue solver
  #
    KS_method          lapack
      empty_states       8
      basis_threshold    0.e-5
  #
  #  Efficiency
  #
  #   all previous settings are now default, except stratmann still
  #   undecided. Continue to handle stratmann with care, if at all.
  #
  #  partition_type stratmann
    partition_type rho_r2
  #  hartree_partition_type stratmann
  #
  #  Oprions for large clusters (100's of atoms: memory saving / better scaling)
  #
  # for periodic systems:
  #
    density_update_method orbital
    packed_matrix_format none
  #  k_grid 6 6 6
  #  output k_eigenvalue 1
  #  distributed_spline_storage .true.
  #
  #  Relaxation
  #
  #  relax_geometry   bfgs 5.e-3
    sc_accuracy_forces 5.E-4
    final_forces_cleaned .true.
  #
  #  Output options
  #
  #  output mulliken
    output Hirshfeld
  #  output dipole
  
  #harmonic_length_scale 0.001
  
  ################################################################################
  #
  #  FHI-aims code project
  #  VB, Fritz-Haber Institut, 2007
  #
  #  Suggested "safe" defaults for H atom (to be pasted into control.in file)
  #  Basis constructed for a non-relativistic H2 molecule using the
  #  PW-LDA functional.
  #
  ################################################################################
    species        H
  #     global species definitions
      nucleus             1
      cut_pot             4.0  2.0  1.0
      cut_free_atom       finite 8.0
      logarithmic         0.00010000 100.00  1.0123
      basis_dep_cutoff    1d-4  # 1d-4 is safe default - please check 5d-4 if you wish!
      radial_base         24 7.0
      radial_multiplier   2
      angular_grids       specified
        division   0.2783  110
        division   0.3822  194
        division   0.5626  302
  #      division   0.5922  434
  #      division   0.6227  590
  #      division   0.7206  770
        outer_grid  302
      l_hartree           4
  ################################################################################
  #
  #  Definition of "minimal" basis
  #
  ################################################################################
  #     valence basis states
      valence      1  s   1.
  #     ion occupancy
      ion_occ      1  s   0.5
  ################################################################################
  #
  #  Suggested additional basis functions. For production calculations,
  #  uncomment them one after another (the most important basis functions are
  #  listed first).
  #
  ################################################################################
  #  "First tier" - improvements: -1014.90 meV to -62.69 meV
       hydro 2 s 2.1
       hydro 2 p 3.5
  #  "Second tier" - improvements: -12.89 meV to -1.83 meV
       hydro 1 s 0.85
       hydro 2 p 3.7
       hydro 2 s 1.2
       hydro 3 d 7
  #  "Third tier" - improvements: -0.25 meV to -0.12 meV
  #     hydro 4 f 11.2
  #     hydro 3 p 4.8
  #     hydro 4 d 9
  #     hydro 3 s 3.2
  
  ################################################################################
  #
  #  FHI-aims code project
  #  VB, Fritz-Haber Institut, 2007
  #
  #  Suggested "safe" defaults for O atom (to be pasted into control.in file)
  #  All values have been tested for a non-relativistic, non-spinpolarized O2
  #  molecule using the PW-LDA functional. Validity for PBE is expected.
  #
  #  Constructed for dimers: 1.0 A, 1.208 A, 1.5 A, 2.0 A, 3.0 A
  #
  ################################################################################
    species        O
  #     global species definitions
      nucleus             8
      mass                15.9994
      l_hartree           4
      cut_pot             4.0  2.0  1.0
      cut_free_atom       finite 8.0
      basis_dep_cutoff    1d-4  # 1d-4 is safe default - please check 5d-4 if you wish!
      logarithmic         0.00010000 100.00  1.0123
      radial_base         36 7.0
      radial_multiplier   2
       angular_grids specified
        division   0.4087  110
        division   0.5181  194
        division   0.6184  302
  #      division   0.7315  434
  #      division   0.7934  590
  #      division   0.9656  770
  #      division   1.4041  974
  #      outer_grid 974
        outer_grid 302
  ################################################################################
  #
  #  Definition of "minimal" basis
  #
  ################################################################################
  #     valence basis states
      valence      2  s   2.
      valence      2  p   4.
  #     ion occupancy
      ion_occ      2  s   1.
      ion_occ      2  p   3.
  ################################################################################
  #
  #  Suggested additional basis functions. For production calculations,
  #  uncomment them one after another (the most important basis functions are
  #  listed first).
  #
  ################################################################################
  #  "First tier" - improvements: -699.05 meV to -159.38 meV
       hydro 2 p 1.8
       hydro 3 d 7.6
       hydro 3 s 6.4
  #  "Second tier" - improvements: -49.91 meV to -5.39 meV
       hydro 4 f 11.6
       hydro 3 p 6.2
       hydro 3 d 5.6
       hydro 5 g 17.6
       hydro 1 s 0.75
  #  "Third tier" - improvements: -2.83 meV to -0.50 meV
  #     ionic 2 p auto
  #     hydro 4 f 10.8
  #     hydro 4 d 4.7
  #     hydro 2 s 6.8
  #  "Fourth tier" - improvements: -0.40 meV to -0.12 meV
  #     hydro 3 p 5
  #     hydro 3 s 3.3
  #     hydro 5 g 15.6
  #     hydro 4 f 17.6
  #     hydro 4 d 14
  # Further basis functions - -0.08 meV and below
  #     hydro 3 s 2.1
  #     hydro 4 d 11.6
  #     hydro 3 p 16
  #     hydro 2 s 17.2
  
  
  -----------------------------------------------------------------------
  Completed first pass over input file control.in .
  -----------------------------------------------------------------------
  
  
  -----------------------------------------------------------------------
  Parsing geometry.in (first pass over file, find array dimensions only).
  The contents of geometry.in will be repeated verbatim below
  unless switched off by setting 'verbatim_writeout .false.' .
  in the first line of geometry.in .
  -----------------------------------------------------------------------
  
  atom      -4.053030000      0.065001000     -1.525160000  O
  atom      -4.566710000      0.974813000     -1.912820000  H
  atom      -3.067820000      0.330172000     -1.477310000  H
  atom      -4.370360000     -0.049164000     -0.572274000  H
  atom      -4.581760000     -0.256435000      0.939478000  O
  atom      -4.349860000      0.471090000      1.504340000  H
  atom      -5.393870000     -0.726611000      1.228070000  H
  atom      -5.293160000      2.192130000     -2.328800000  O
  atom      -4.829300000      2.988660000     -1.973850000  H
  atom      -5.428570000      2.328640000     -3.235170000  H
  atom      -1.975360000      2.858040000      0.453140000  O
  atom      -1.223550000      3.375850000      0.786238000  H
  atom      -2.537520000      2.567960000      1.156120000  H
  
  -----------------------------------------------------------------------
  Completed first pass over input file geometry.in .
  -----------------------------------------------------------------------
  
 
  Basic array size parameters: 
  | Number of species                 :        2
  | Number of atoms                   :       13
  | Max. basis fn. angular momentum   :        4
  | Max. atomic/ionic basis occupied n:        2
  | Max. number of basis fn. types    :        2
  | Max. radial fns per species/type  :        8
  | Max. logarithmic grid size        :     1301
  | Max. radial integration grid size :       73
  | Max. angular integration grid size:      302
  | Max. angular grid division number :        8
  | Radial grid for Hartree potential :     1301
  | Number of spin channels           :        1

------------------------------------------------------------
          Reading file control.in.
------------------------------------------------------------
  XC: Using RPBE gradient-corrected functionals.
  Spin treatment: No spin polarisation.
  Scalar relativistic treatment of kinetic energy: on-site free-atom approximation to ZORA.
  Charge =   0.000000E+00: Neutral system requested explicitly.
  Using non-empirical van der Waals correction (Hirshfeld partitioning):
  Occupation type: Gaussian broadening, width =   0.100000E-01 eV.
  Using pulay charge density mixing.
  Pulay mixing - number of memorized iterations:   10
  Charge density mixing - mixing parameter:     0.1000
  Convergence accuracy of self-consistent charge density: 0.5000E-04
  Convergence accuracy of sum of eigenvalues: 0.5000E-02
  Convergence accuracy of total energy: 0.5000E-05
  Maximum number of s.-c. iterations  :  3000
  Kohn-Sham eigenvalues and eigenfunctions calculated by lapack diagonalisation (D&C).
  Number of empty states per atom:        8
  Threshold for basis singularities: 0.0000E+00
  Partition function in integrals calculations: rho / r^2
 Using packed matrix format           0
  Convergence accuracy of forces: 0.5000E-03
  Cleaning forces before final output.
  Hirshfeld charge analysis will be performed.
 
  Reading configuration options for species H                   .
  | Found nuclear charge :   1.0000
  | Found cutoff potl. onset [A], width [A], scale factor :    4.00000    2.00000    1.00000
  | Found cutoff specification for free atom: Cutoff potential begins at    8.00000 A.
  | Found logarithmic grid data [bohr] : 0.1000E-03 0.1000E+03 0.1012E+01
  | Threshold for basis-dependent cutoff potential is   0.100000E-03
  | Found data for basic radial integration grid :    24 points, outermost radius =    7.000 A
  | Found multiplier for basic radial grid :   2
  | Found angular grid specification: user-specified.
  | Specified grid contains     4 separate shells.
  | Check grid settings after all constraints further below.
  | Found l_max for Hartree potential  :   4
  | Found free-atom valence shell :  1 s   1.000
  | No ionic wave fns used. Skipping ion_occ.
  | Found hydrogenic basis function :  2 s   2.100
  | Found hydrogenic basis function :  2 p   3.500
  | Found hydrogenic basis function :  1 s   0.850
  | Found hydrogenic basis function :  2 p   3.700
  | Found hydrogenic basis function :  2 s   1.200
  | Found hydrogenic basis function :  3 d   7.000
  Species H                   : Missing cutoff potential type.
  Defaulting to exp(1/x)/(1-x)^2 type cutoff potential.
  Species H : On-site basis accuracy parameter (for Gram-Schmidt orthonormalisation) not specified.
  Using default value basis_acc =  0.1000000E-03.
  Species H                   : Using default innermost maximum threshold i_radial=  2 for radial functions.
  Species H                   : Basic radial grid will be enhanced according to radial_multiplier =   2, to contain    49 grid points.
 
  Reading configuration options for species O                   .
  | Found nuclear charge :   8.0000
  | Found atomic mass :    15.9994000000000      amu
  | Found l_max for Hartree potential  :   4
  | Found cutoff potl. onset [A], width [A], scale factor :    4.00000    2.00000    1.00000
  | Found cutoff specification for free atom: Cutoff potential begins at    8.00000 A.
  | Threshold for basis-dependent cutoff potential is   0.100000E-03
  | Found logarithmic grid data [bohr] : 0.1000E-03 0.1000E+03 0.1012E+01
  | Found data for basic radial integration grid :    36 points, outermost radius =    7.000 A
  | Found multiplier for basic radial grid :   2
  | Found angular grid specification: user-specified.
  | Specified grid contains     4 separate shells.
  | Check grid settings after all constraints further below.
  | Found free-atom valence shell :  2 s   2.000
  | Found free-atom valence shell :  2 p   4.000
  | No ionic wave fns used. Skipping ion_occ.
  | No ionic wave fns used. Skipping ion_occ.
  | Found hydrogenic basis function :  2 p   1.800
  | Found hydrogenic basis function :  3 d   7.600
  | Found hydrogenic basis function :  3 s   6.400
  | Found hydrogenic basis function :  4 f  11.600
  | Found hydrogenic basis function :  3 p   6.200
  | Found hydrogenic basis function :  3 d   5.600
  | Found hydrogenic basis function :  5 g  17.600
  | Found hydrogenic basis function :  1 s   0.750
  Species O                   : Missing cutoff potential type.
  Defaulting to exp(1/x)/(1-x)^2 type cutoff potential.
  Species O : On-site basis accuracy parameter (for Gram-Schmidt orthonormalisation) not specified.
  Using default value basis_acc =  0.1000000E-03.
  Species O                   : Using default innermost maximum threshold i_radial=  2 for radial functions.
  Species O                   : Basic radial grid will be enhanced according to radial_multiplier =   2, to contain    73 grid points.
 
  Finished reading input file 'control.in'. Consistency checks are next.
 
  Target number of points in a grid batch is not set. Defaulting to  100
  Method for grid partitioning is not set. Defaulting to parallel hash+maxmin partitioning.
  Batch size limit is not set. Defaulting to    200
  By default, will store active basis functions for each batch.
  If in need of memory, prune_basis_once .false. can be used to disable this option.
  communication_type for Hartree potential was not specified.
  Defaulting to calc_hartree .
  Pulay mixer: Number of initial linear mixing iterations not set.
  Defaulting to    0 iterations.
  Work space size for distributed Hartree potential not set.
  Defaulting to   0.200000E+03 MB.
  Algorithm-dependent basis array size parameters:
  | n_max_pulay                         :       10
  Geometry relaxation not requested: no relaxation will be performed.
  Handling of forces: Unphysical translation and rotation will be removed from forces.
  No accuracy limit for integral partition fn. given. Defaulting to 0.1000E-14.
  No threshold value for u(r) in integrations given. Defaulting to 0.1000E-05.
  No accuracy for occupation numbers given. Defaulting to 0.1000E-07.
  No threshold value for occupation numbers given. Defaulting to 0.0000E+00.
  No accuracy for fermi level given. Defaulting to 0.1000E-19.
  Maximum # of iterations to find E_F not set. Defaulting to  200.
  Will not use alltoall communication since running on < 1024 CPUs.
  Partitioning for Hartree potential was not defined. Using partition_type for integrals.
  | Reporting present value of keyword multip_moments_threshold  :       0.10000000E-09
  | This value may affect high angular momentum components of the Hartree potential in periodic systems.
  No q(lm)/r^(l+1) cutoff set for long-range Hartree potential.
  | Using default value of  0.100000E-09 .
  | Verify using the multipole_threshold keyword.
  Defaulting to new monopole extrapolation.
  Density update method: Loop over occupied states selected for charge density update.
------------------------------------------------------------


------------------------------------------------------------
          Reading geometry description geometry.in.
------------------------------------------------------------
  Input structure read successfully.
  The structure contains       13 atoms,  and a total of         41.000 electrons.

  Input geometry:
  | No unit cell requested.
  | Atomic structure:
  |       Atom                x [A]            y [A]            z [A]
  |    1: Species O             -4.053030         0.065001        -1.525160
  |    2: Species H             -4.566710         0.974813        -1.912820
  |    3: Species H             -3.067820         0.330172        -1.477310
  |    4: Species H             -4.370360        -0.049164        -0.572274
  |    5: Species O             -4.581760        -0.256435         0.939478
  |    6: Species H             -4.349860         0.471090         1.504340
  |    7: Species H             -5.393870        -0.726611         1.228070
  |    8: Species O             -5.293160         2.192130        -2.328800
  |    9: Species H             -4.829300         2.988660        -1.973850
  |   10: Species H             -5.428570         2.328640        -3.235170
  |   11: Species O             -1.975360         2.858040         0.453140
  |   12: Species H             -1.223550         3.375850         0.786238
  |   13: Species H             -2.537520         2.567960         1.156120
  |

  | The smallest distance between any two atoms is         0.92654057 AA.
  |
  | The first atom of this pair is atom number                      8 .
  | The second atom of this pair is atom number                    10 .

  Structure-dependent array size parameters: 
  | Maximum number of distinct radial functions  :       18
  | Maximum number of basis functions            :      291
  | Number of Kohn-Sham states (occupied + empty):       73
------------------------------------------------------------

------------------------------------------------------------
          Preparing all fixed parts of the calculation.
------------------------------------------------------------
  Determining machine precision:
    2.225073858507201E-308
  Setting up grids for atomic and cluster calculations.

  Creating wave function, potential, and density for free atoms.

  Species: H

  List of occupied orbitals and eigenvalues:
    n    l              occ      energy [Ha]    energy [eV]
    1    0           1.0000        -0.241408        -6.5691


  Species: O

  List of occupied orbitals and eigenvalues:
    n    l              occ      energy [Ha]    energy [eV]
    1    0           2.0000       -18.944147      -515.4965
    2    0           2.0000        -0.883529       -24.0421
    2    1           4.0000        -0.330176        -8.9845

  Creating fixed part of basis set: Ionic, confined, hydrogenic.
 
  H                    hydrogenic:
 
  List of hydrogenic basis orbitals: 
    n    l      effective z      eigenvalue [eV]  inner max. [A]     outer max. [A]     outer radius [A]   
    2    0         2.100000       -14.9965           0.193241           1.317192           5.372934
    2    1         3.500000       -41.6672           0.602363           0.602363           4.056010
    1    0         0.850000        -9.8292           0.624864           0.624864           5.372934
    2    1         3.700000       -46.5653           0.573616           0.573616           3.909951
    2    0         1.200000        -4.5995           0.334977           2.228160           5.505921
    3    2         7.000000       -74.0753           0.680692           0.680692           3.769152
 
 
  O                    hydrogenic:
 
  List of hydrogenic basis orbitals: 
    n    l      effective z      eigenvalue [eV]  inner max. [A]     outer max. [A]     outer radius [A]   
    2    1         1.800000       -11.0118           1.178546           1.178546           5.432516
    3    2         7.600000       -87.3182           0.624117           0.624117           3.541422
    3    0         6.400000       -61.9209           0.061166           1.081887           4.306510
    4    3        11.600000      -114.4238           0.731621           0.731621           3.584982
    3    1         6.200000       -58.1113           0.255677           1.030255           4.306510
    3    2         5.600000       -47.4081           0.847222           0.847222           4.413102
    5    4        17.600000      -168.5799           0.749730           0.749730           3.372413
    1    0         0.750000        -7.6499           0.705275           0.705275           5.366508
 

  Adding cutoff potential to free-atom effective potential.
  Creating atomic-like basis functions for current effective potential.

  Species H                   :

  List of atomic basis orbitals and eigenvalues:
    n    l      energy [Ha]    energy [eV]    outer radius [A]
    1    0        -0.241374        -6.5681       5.372934


  Species O                   :

  List of atomic basis orbitals and eigenvalues:
    n    l      energy [Ha]    energy [eV]    outer radius [A]
    1    0       -18.944147      -515.4965       1.415745
    2    0        -0.883529       -24.0421       5.048305
    2    1        -0.330173        -8.9845       5.301302

  Assembling full basis from fixed parts.
  | Species H :   atomic orbital   1 s accepted.
  | Species H :    hydro orbital   2 s accepted.
  | Species H :    hydro orbital   1 s accepted.
  | Species H :    hydro orbital   2 s accepted.
  | Species H :    hydro orbital   2 p accepted.
  | Species H :    hydro orbital   2 p accepted.
  | Species H :    hydro orbital   3 d accepted.
  | Species O :   atomic orbital   1 s accepted.
  | Species O :    hydro orbital   3 s accepted.
  | Species O :   atomic orbital   2 s accepted.
  | Species O :    hydro orbital   1 s accepted.
  | Species O :    hydro orbital   3 p accepted.
  | Species O :   atomic orbital   2 p accepted.
  | Species O :    hydro orbital   2 p accepted.
  | Species O :    hydro orbital   3 d accepted.
  | Species O :    hydro orbital   3 d accepted.
  | Species O :    hydro orbital   4 f accepted.
  | Species O :    hydro orbital   5 g accepted.
 
  Basis size parameters after reduction:
  | Total number of radial functions:       18
  | Total number of basis functions :      291
 
  Testing on-site integration grid accuracy.
  |  Species  Function  <phi|h_atom|phi> (log., in eV)  <phi|h_atom|phi> (rad., in eV)
           1        1                 -6.5683835025                 -6.5684759159
           1        2                 13.3711789951                 13.3708738703
           1        3                 23.6590910787                 23.6532055418
           1        4                 16.2963827186                 16.1870710655 ***
           1        5                 28.7627214838                 28.7627215090
           1        6                 59.5965249172                 59.5965950857
           1        7                 60.2220506392                 60.2220503827
           2        8               -515.4964576505               -515.4964530710
           2        9                 15.3030791347                 15.3030722972
           2       10                -21.7296094581                -21.7296135470
           2       11                 14.2969371730                 14.2969701621
           2       12                 21.0679693190                 21.0679697493
           2       13                 -2.3833606469                 -2.3833613176
           2       14                 13.7067136422                 13.7066766629
           2       15                 45.8013116808                 45.8013116965
           2       16                 52.2309815402                 52.2309831494
           2       17                 85.4120732416                 85.4120732763
           2       18                142.1019167745                142.1019167817
 * Note: Onsite integrals marked "***" above are less accurate than
 * onsite_accuracy_threshold =    0.03000 eV. Usually, this is harmless.
 * When in doubt, tighten the "radial" and/or "radial_multiplier" flags to check.

  Preparing densities etc. for the partition functions (integrals / Hartree potential).

  Preparations completed.
  max(cpu_time)          :      0.174 s.
  Wall clock time (cpu1) :      0.476 s.
------------------------------------------------------------

------------------------------------------------------------
          Begin self-consistency loop: Initialization.

          Date     :  20150727, Time     :  120849.040
------------------------------------------------------------

  Initializing index lists of integration centers etc. from given atomic structure:
  | Number of centers in hartree potential         :        13
  | Number of centers in hartree multipole         :        13
  | Number of centers in electron density summation:        13
  | Number of centers in basis integrals           :        13
  | Number of centers in integrals                 :        13
  Partitioning the integration grid into batches with parallel hashing+maxmin method.
  | Number of batches:     1768
  | Maximal batch size:     185
  | Minimal batch size:      50
  | Average batch size:      95.567
  | Standard deviation of batch sizes:      29.103

  Integration load balanced across     8 MPI tasks.
  Work distribution over tasks is as follows:
  Task     0 has      21056 integration points.
  Task     1 has      21166 integration points.
  Task     2 has      21122 integration points.
  Task     3 has      21182 integration points.
  Task     4 has      21119 integration points.
  Task     5 has      21076 integration points.
  Task     6 has      21075 integration points.
  Task     7 has      21166 integration points.
  Initializing partition tables, free-atom densities, potentials, etc. across the integration grid (initialize_grid_storage).
  | Net number of integration points:   168962
  | of which are non-zero points    :   168421
  Obtaining max. number of non-zero basis functions in each batch (get_n_compute_maxes).
  | Maximal number of non-zero basis functions:      288 in task     0
  | Maximal number of non-zero basis functions:      288 in task     1
  | Maximal number of non-zero basis functions:      289 in task     2
  | Maximal number of non-zero basis functions:      289 in task     3
  | Maximal number of non-zero basis functions:      289 in task     4
  | Maximal number of non-zero basis functions:      288 in task     5
  | Maximal number of non-zero basis functions:      289 in task     6
  | Maximal number of non-zero basis functions:      289 in task     7
  Integrating Hamiltonian matrix: batch-based integration.
  Time summed over all CPUs for integration: real work        5.150 s, elapsed        5.261 s
  Integrating overlap matrix.
  Time summed over all CPUs for integration: real work        2.729 s, elapsed        2.785 s

  Updating Kohn-Sham eigenvalues, eigenvectors, occupation numbers, and Fermi level.
  Solving generalized eigenproblem
  Updating Kohn-Sham eigenvalues and eigenfunctions.
  Transforming overlap matrix and checking for singularities.
  Overlap matrix is nonsingular:
  | Lowest eigenvalue:  0.240553E-03
  Solving real generalised eigenvalue problem by standard LAPACK (fast)
  Determining occupation numbers for Kohn-Sham eigenstates.
  | Chemical potential (Fermi level) in eV                 : -.26803656E+01
  | Error in electron count due to remaining E_F inaccuracy: -.69108879E-08
  | Maximum occupation number of highest empty state:  0.00E+00

  Writing Kohn-Sham eigenvalues.

  State    Occupation    Eigenvalue [Ha]    Eigenvalue [eV]
      1       2.00000         -19.065137         -518.78877
      2       2.00000         -19.064850         -518.78096
      3       2.00000         -19.059142         -518.62564
      4       2.00000         -19.054463         -518.49831
      5       2.00000          -1.130028          -30.74962
      6       2.00000          -1.116431          -30.37963
      7       2.00000          -1.103381          -30.02452
      8       2.00000          -1.102842          -30.00987
      9       2.00000          -0.651574          -17.73024
     10       2.00000          -0.650783          -17.70871
     11       2.00000          -0.646393          -17.58925
     12       2.00000          -0.640943          -17.44094
     13       2.00000          -0.620534          -16.88559
     14       2.00000          -0.533841          -14.52654
     15       2.00000          -0.506709          -13.78825
     16       2.00000          -0.501135          -13.63657
     17       2.00000          -0.484003          -13.17039
     18       2.00000          -0.452653          -12.31732
     19       2.00000          -0.446092          -12.13878
     20       2.00000          -0.437925          -11.91655
     21       1.00000          -0.098502           -2.68037
     22       0.00000          -0.067399           -1.83402
     23       0.00000          -0.055186           -1.50168
     24       0.00000          -0.044382           -1.20770
     25       0.00000          -0.013729           -0.37359
     26       0.00000          -0.003003           -0.08172
     27       0.00000           0.030119            0.81959
     28       0.00000           0.045269            1.23183
     29       0.00000           0.060076            1.63475
     30       0.00000           0.066383            1.80638
     31       0.00000           0.077369            2.10532
     32       0.00000           0.089048            2.42312
     33       0.00000           0.096466            2.62497
     34       0.00000           0.110703            3.01239
     35       0.00000           0.114686            3.12076
     36       0.00000           0.116207            3.16214
     37       0.00000           0.119112            3.24121
     38       0.00000           0.133691            3.63792
     39       0.00000           0.143190            3.89640
     40       0.00000           0.149016            4.05493
     41       0.00000           0.165080            4.49204
     42       0.00000           0.176481            4.80229
     43       0.00000           0.181308            4.93365
     44       0.00000           0.215075            5.85250
     45       0.00000           0.232777            6.33420
     46       0.00000           0.246765            6.71482
     47       0.00000           0.271281            7.38192
     48       0.00000           0.280730            7.63906
     49       0.00000           0.294894            8.02446
     50       0.00000           0.299171            8.14085
     51       0.00000           0.344411            9.37189
     52       0.00000           0.356429            9.69891
     53       0.00000           0.362607            9.86704
     54       0.00000           0.376456           10.24388
     55       0.00000           0.386112           10.50663
     56       0.00000           0.394900           10.74577
     57       0.00000           0.416956           11.34594
     58       0.00000           0.427505           11.63301
     59       0.00000           0.432522           11.76953
     60       0.00000           0.450832           12.26775
     61       0.00000           0.459920           12.51505
     62       0.00000           0.484632           13.18750
     63       0.00000           0.495484           13.48282
     64       0.00000           0.530194           14.42733
     65       0.00000           0.536467           14.59801
     66       0.00000           0.559715           15.23063
     67       0.00000           0.565057           15.37599
     68       0.00000           0.606745           16.51038
     69       0.00000           0.643070           17.49884
     70       0.00000           0.694490           18.89805
     71       0.00000           0.722962           19.67280
     72       0.00000           0.743533           20.23256
     73       0.00000           0.758037           20.62724

  Highest occupied state (VBM) at    -11.91655454 eV
  | Occupation number:      2.00000000

  Lowest unoccupied state (CBM) at    -2.68036558 eV
  | Occupation number:      0.99999999

  Overall HOMO-LUMO gap:      9.23618896 eV.
  Calculating total energy contributions from superposition of free atom densities.

  Total energy components:
  | Sum of eigenvalues            :        -174.63621689 Ha       -4752.09324549 eV
  | XC energy correction          :         -36.85080452 Ha       -1002.76141082 eV
  | XC potential correction       :          47.09909375 Ha        1281.63154972 eV
  | Free-atom electrostatic energy:        -142.54124954 Ha       -3878.74474844 eV
  | Hartree energy correction     :           0.00000000 Ha           0.00000000 eV
  | van der Waals energy corr.    :           0.00000000 Ha           0.00000000 eV
  | Entropy correction            :          -0.00010367 Ha          -0.00282095 eV
  | ---------------------------
  | Total energy                  :        -306.92917720 Ha       -8351.96785502 eV
  | Total energy, T -> 0          :        -306.92928087 Ha       -8351.97067597 eV  <-- do not rely on this value for anything but (periodic) metals
  | Electronic free energy        :        -306.92938453 Ha       -8351.97349691 eV

  Derived energy quantities:
  | Kinetic energy                :         304.06325242 Ha        8273.98207396 eV
  | Electrostatic energy          :        -574.14162510 Ha      -15623.18851816 eV
  | Energy correction for multipole
  | error in Hartree potential    :           0.00000000 Ha           0.00000000 eV
  | Sum of eigenvalues per atom                           :        -365.54563427 eV
  | Total energy (T->0) per atom                          :        -642.45928277 eV  <-- do not rely on this value for anything but (periodic) metals
  | Electronic free energy per atom                       :        -642.45949976 eV
  Initialize hartree_potential_storage
  Max. number of atoms included in rho_multipole:           13

  End scf initialization - timings             :  max(cpu_time)    wall_clock(cpu1)
  | Time for scf. initialization               :        1.452 s           1.451 s
  | Boundary condition initialization          :        0.000 s           0.000 s
  | Integration                                :        1.008 s           1.008 s
  | Solution of K.-S. eqns.                    :        0.136 s           0.136 s
  | Grid partitioning                          :        0.137 s           0.137 s
  | Preloading free-atom quantities on grid    :        0.014 s           0.013 s
  | Free-atom superposition energy             :        0.052 s           0.052 s
  | Total energy evaluation                    :        0.001 s           0.001 s
------------------------------------------------------------

------------------------------------------------------------
          Begin self-consistency iteration #    1

  Date     :  20150727, Time     :  120850.492
------------------------------------------------------------
  Evaluating new KS density.
  Integration grid: deviation in total charge (<rho> - N_e) =  -6.910895E-09
  Pulay mixing of updated and previous charge densities.

  Evaluating partitioned Hartree potential by multipole expansion.
  | Analytical far-field extrapolation by fixed multipoles:
  | Hartree multipole sum: apparent total charge =  -0.775497E-06
  Summing up the Hartree potential.
  Time summed over all CPUs for potential: real work        1.920 s, elapsed        1.931 s
  | RMS charge density error from multipole expansion :   0.156028E-02

  Integrating Hamiltonian matrix: batch-based integration.
  Time summed over all CPUs for integration: real work        5.140 s, elapsed        5.235 s

  Updating Kohn-Sham eigenvalues, eigenvectors, occupation numbers, and Fermi level.
  Solving generalized eigenproblem
  Updating Kohn-Sham eigenvalues and eigenfunctions.
  Solving real generalised eigenvalue problem by standard LAPACK (fast)
  Determining occupation numbers for Kohn-Sham eigenstates.
  | Chemical potential (Fermi level) in eV                 : -.24729561E+01
  | Error in electron count due to remaining E_F inaccuracy: 0.15591439E-09
  | Maximum occupation number of highest empty state:  0.00E+00

  Writing Kohn-Sham eigenvalues.

  State    Occupation    Eigenvalue [Ha]    Eigenvalue [eV]
      1       2.00000         -19.009643         -517.27870
      2       2.00000         -18.997714         -516.95409
      3       2.00000         -18.985706         -516.62735
      4       2.00000         -18.969281         -516.18041
      5       2.00000          -1.101851          -29.98288
      6       2.00000          -1.085454          -29.53672
      7       2.00000          -1.068740          -29.08190
      8       2.00000          -1.059952          -28.84276
      9       2.00000          -0.624514          -16.99390
     10       2.00000          -0.621043          -16.89945
     11       2.00000          -0.616480          -16.77528
     12       2.00000          -0.608752          -16.56498
     13       2.00000          -0.597617          -16.26198
     14       2.00000          -0.503866          -13.71089
     15       2.00000          -0.473899          -12.89544
     16       2.00000          -0.457836          -12.45836
     17       2.00000          -0.453782          -12.34803
     18       2.00000          -0.420409          -11.43990
     19       2.00000          -0.409469          -11.14222
     20       2.00000          -0.392992          -10.69387
     21       1.00000          -0.090879           -2.47296
     22       0.00000          -0.060856           -1.65599
     23       0.00000          -0.047201           -1.28441
     24       0.00000          -0.037792           -1.02838
     25       0.00000          -0.006314           -0.17180
     26       0.00000           0.002150            0.05849
     27       0.00000           0.036863            1.00308
     28       0.00000           0.053386            1.45270
     29       0.00000           0.064278            1.74909
     30       0.00000           0.072214            1.96503
     31       0.00000           0.086220            2.34617
     32       0.00000           0.096111            2.61532
     33       0.00000           0.103860            2.82618
     34       0.00000           0.119966            3.26443
     35       0.00000           0.121329            3.30153
     36       0.00000           0.122543            3.33458
     37       0.00000           0.126718            3.44817
     38       0.00000           0.144719            3.93800
     39       0.00000           0.155256            4.22474
     40       0.00000           0.158226            4.30554
     41       0.00000           0.171714            4.67258
     42       0.00000           0.182662            4.97048
     43       0.00000           0.189153            5.14712
     44       0.00000           0.222602            6.05731
     45       0.00000           0.238947            6.50209
     46       0.00000           0.253113            6.88755
     47       0.00000           0.277577            7.55326
     48       0.00000           0.287977            7.83624
     49       0.00000           0.299727            8.15598
     50       0.00000           0.305458            8.31193
     51       0.00000           0.352371            9.58851
     52       0.00000           0.363682            9.89629
     53       0.00000           0.369516           10.05504
     54       0.00000           0.383897           10.44637
     55       0.00000           0.393811           10.71615
     56       0.00000           0.402453           10.95131
     57       0.00000           0.425440           11.57682
     58       0.00000           0.436678           11.88261
     59       0.00000           0.439260           11.95288
     60       0.00000           0.460400           12.52813
     61       0.00000           0.469778           12.78332
     62       0.00000           0.494294           13.45041
     63       0.00000           0.505134           13.74538
     64       0.00000           0.538864           14.66322
     65       0.00000           0.544865           14.82654
     66       0.00000           0.569543           15.49805
     67       0.00000           0.576376           15.68398
     68       0.00000           0.615857           16.75831
     69       0.00000           0.653149           17.77308
     70       0.00000           0.705259           19.19109
     71       0.00000           0.733830           19.96852
     72       0.00000           0.752540           20.47766
     73       0.00000           0.766748           20.86427

  Highest occupied state (VBM) at     -2.47295606 eV
  | Occupation number:      1.00000000

  Lowest unoccupied state (CBM) at    -1.65598674 eV
  | Occupation number:      0.00000000

  Overall HOMO-LUMO gap:      0.81696931 eV.

  Total energy components:
  | Sum of eigenvalues            :        -173.00888236 Ha       -4707.81121978 eV
  | XC energy correction          :         -37.02903390 Ha       -1007.61127901 eV
  | XC potential correction       :          47.33188945 Ha        1287.96624305 eV
  | Free-atom electrostatic energy:        -142.54124954 Ha       -3878.74474844 eV
  | Hartree energy correction     :          -1.58362992 Ha         -43.09276278 eV
  | van der Waals energy corr.    :           0.00000000 Ha           0.00000000 eV
  | Entropy correction            :          -0.00010367 Ha          -0.00282095 eV
  | ---------------------------
  | Total energy                  :        -306.83090627 Ha       -8349.29376696 eV
  | Total energy, T -> 0          :        -306.83100994 Ha       -8349.29658791 eV  <-- do not rely on this value for anything but (periodic) metals
  | Electronic free energy        :        -306.83111360 Ha       -8349.29940886 eV

  Derived energy quantities:
  | Kinetic energy                :         305.16580864 Ha        8303.98415528 eV
  | Electrostatic energy          :        -574.96768102 Ha      -15645.66664323 eV
  | Energy correction for multipole
  | error in Hartree potential    :           0.00031455 Ha           0.00855941 eV
  | Sum of eigenvalues per atom                           :        -362.13932460 eV
  | Total energy (T->0) per atom                          :        -642.25358369 eV  <-- do not rely on this value for anything but (periodic) metals
  | Electronic free energy per atom                       :        -642.25380068 eV

  Self-consistency convergence accuracy:
  | Change of charge density      : 0.5789E+00
  | Change of sum of eigenvalues  : 0.4428E+02 eV
  | Change of total energy        : 0.2674E+01 eV

  End self-consistency iteration #     1       :  max(cpu_time)    wall_clock(cpu1)
  | Time for this iteration                    :        1.406 s           1.405 s
  | Charge density update                      :        0.461 s           0.460 s
  | Density mixing                             :        0.003 s           0.003 s
  | Hartree multipole update                   :        0.004 s           0.004 s
  | Hartree multipole summation                :        0.243 s           0.242 s
  | Integration                                :        0.655 s           0.656 s
  | Solution of K.-S. eqns.                    :        0.036 s           0.036 s
  | Total energy evaluation                    :        0.001 s           0.001 s
------------------------------------------------------------

------------------------------------------------------------
          Begin self-consistency iteration #    2

  Date     :  20150727, Time     :  120851.898
------------------------------------------------------------
  Evaluating new KS density.
  Integration grid: deviation in total charge (<rho> - N_e) =   1.559357E-10
  Pulay mixing of updated and previous charge densities.

  Evaluating partitioned Hartree potential by multipole expansion.
  | Analytical far-field extrapolation by fixed multipoles:
  | Hartree multipole sum: apparent total charge =  -0.302856E-05
  Summing up the Hartree potential.
  Time summed over all CPUs for potential: real work        1.920 s, elapsed        1.931 s
  | RMS charge density error from multipole expansion :   0.643061E-02

  Integrating Hamiltonian matrix: batch-based integration.
  Time summed over all CPUs for integration: real work        5.137 s, elapsed        5.236 s

  Updating Kohn-Sham eigenvalues, eigenvectors, occupation numbers, and Fermi level.
  Solving generalized eigenproblem
  Updating Kohn-Sham eigenvalues and eigenfunctions.
  Solving real generalised eigenvalue problem by standard LAPACK (fast)
  Determining occupation numbers for Kohn-Sham eigenstates.
  | Chemical potential (Fermi level) in eV                 : -.19768306E+01
  | Error in electron count due to remaining E_F inaccuracy: 0.49964441E-08
  | Maximum occupation number of highest empty state:  0.00E+00

  Highest occupied state (VBM) at     -1.97683063 eV
  | Occupation number:      1.00000000

  Lowest unoccupied state (CBM) at    -1.23328949 eV
  | Occupation number:      0.00000000

  Overall HOMO-LUMO gap:      0.74354114 eV.

  Total energy components:
  | Sum of eigenvalues            :        -169.02014393 Ha       -4599.27212485 eV
  | XC energy correction          :         -37.48972207 Ha       -1020.14724200 eV
  | XC potential correction       :          47.93224535 Ha        1304.30275803 eV
  | Free-atom electrostatic energy:        -142.54124954 Ha       -3878.74474844 eV
  | Hartree energy correction     :          -5.59862484 Ha        -152.34633306 eV
  | van der Waals energy corr.    :           0.00000000 Ha           0.00000000 eV
  | Entropy correction            :          -0.00010367 Ha          -0.00282095 eV
  | ---------------------------
  | Total energy                  :        -306.71749504 Ha       -8346.20769032 eV
  | Total energy, T -> 0          :        -306.71759870 Ha       -8346.21051127 eV  <-- do not rely on this value for anything but (periodic) metals
  | Electronic free energy        :        -306.71770237 Ha       -8346.21333221 eV

  Derived energy quantities:
  | Kinetic energy                :         307.53129689 Ha        8368.35236551 eV
  | Electrostatic energy          :        -576.75906986 Ha      -15694.41281383 eV
  | Energy correction for multipole
  | error in Hartree potential    :           0.00055855 Ha           0.01519879 eV
  | Sum of eigenvalues per atom                           :        -353.79016345 eV
  | Total energy (T->0) per atom                          :        -642.01619317 eV  <-- do not rely on this value for anything but (periodic) metals
  | Electronic free energy per atom                       :        -642.01641017 eV

  Self-consistency convergence accuracy:
  | Change of charge density      : 0.4414E+00
  | Change of sum of eigenvalues  : 0.1085E+03 eV
  | Change of total energy        : 0.3086E+01 eV

  End self-consistency iteration #     2       :  max(cpu_time)    wall_clock(cpu1)
  | Time for this iteration                    :        1.400 s           1.399 s
  | Charge density update                      :        0.455 s           0.455 s
  | Density mixing                             :        0.005 s           0.005 s
  | Hartree multipole update                   :        0.004 s           0.004 s
  | Hartree multipole summation                :        0.242 s           0.242 s
  | Integration                                :        0.656 s           0.656 s
  | Solution of K.-S. eqns.                    :        0.036 s           0.036 s
  | Total energy evaluation                    :        0.000 s           0.001 s
------------------------------------------------------------

------------------------------------------------------------
          Begin self-consistency iteration #    3

  Date     :  20150727, Time     :  120853.298
------------------------------------------------------------
  Evaluating new KS density.
  Integration grid: deviation in total charge (<rho> - N_e) =   4.996444E-09
  Pulay mixing of updated and previous charge densities.

  Evaluating partitioned Hartree potential by multipole expansion.
  | Analytical far-field extrapolation by fixed multipoles:
  | Hartree multipole sum: apparent total charge =  -0.281989E-05
  Summing up the Hartree potential.
  Time summed over all CPUs for potential: real work        1.919 s, elapsed        1.932 s
  | RMS charge density error from multipole expansion :   0.129553E-01

  Integrating Hamiltonian matrix: batch-based integration.
  Time summed over all CPUs for integration: real work        5.137 s, elapsed        5.240 s

  Updating Kohn-Sham eigenvalues, eigenvectors, occupation numbers, and Fermi level.
  Solving generalized eigenproblem
  Updating Kohn-Sham eigenvalues and eigenfunctions.
  Solving real generalised eigenvalue problem by standard LAPACK (fast)
  Determining occupation numbers for Kohn-Sham eigenstates.
  | Chemical potential (Fermi level) in eV                 : -.19706381E+01
  | Error in electron count due to remaining E_F inaccuracy: 0.85265128E-13
  | Maximum occupation number of highest empty state:  0.00E+00

  Highest occupied state (VBM) at     -1.97063814 eV
  | Occupation number:      1.00000000

  Lowest unoccupied state (CBM) at    -1.21291563 eV
  | Occupation number:      0.00000000

  Overall HOMO-LUMO gap:      0.75772251 eV.

  Total energy components:
  | Sum of eigenvalues            :        -169.47056244 Ha       -4611.52863599 eV
  | XC energy correction          :         -37.46513665 Ha       -1019.47823861 eV
  | XC potential correction       :          47.89256288 Ha        1303.22294321 eV
  | Free-atom electrostatic energy:        -142.54124954 Ha       -3878.74474844 eV
  | Hartree energy correction     :          -5.13322879 Ha        -139.68226244 eV
  | van der Waals energy corr.    :           0.00000000 Ha           0.00000000 eV
  | Entropy correction            :          -0.00010367 Ha          -0.00282095 eV
  | ---------------------------
  | Total energy                  :        -306.71761454 Ha       -8346.21094227 eV
  | Total energy, T -> 0          :        -306.71771821 Ha       -8346.21376322 eV  <-- do not rely on this value for anything but (periodic) metals
  | Electronic free energy        :        -306.71782188 Ha       -8346.21658416 eV

  Derived energy quantities:
  | Kinetic energy                :         305.99902266 Ha        8326.65706229 eV
  | Electrostatic energy          :        -575.25150056 Ha      -15653.38976595 eV
  | Energy correction for multipole
  | error in Hartree potential    :          -0.00262986 Ha          -0.07156222 eV
  | Sum of eigenvalues per atom                           :        -354.73297200 eV
  | Total energy (T->0) per atom                          :        -642.01644332 eV  <-- do not rely on this value for anything but (periodic) metals
  | Electronic free energy per atom                       :        -642.01666032 eV

  Self-consistency convergence accuracy:
  | Change of charge density      : 0.2108E+00
  | Change of sum of eigenvalues  : -.1226E+02 eV
  | Change of total energy        : -.3252E-02 eV

  End self-consistency iteration #     3       :  max(cpu_time)    wall_clock(cpu1)
  | Time for this iteration                    :        1.401 s           1.400 s
  | Charge density update                      :        0.454 s           0.454 s
  | Density mixing                             :        0.006 s           0.006 s
  | Hartree multipole update                   :        0.005 s           0.004 s
  | Hartree multipole summation                :        0.242 s           0.243 s
  | Integration                                :        0.657 s           0.656 s
  | Solution of K.-S. eqns.                    :        0.036 s           0.036 s
  | Total energy evaluation                    :        0.000 s           0.001 s
------------------------------------------------------------

------------------------------------------------------------
          Begin self-consistency iteration #    4

  Date     :  20150727, Time     :  120854.699
------------------------------------------------------------
  Evaluating new KS density.
  Integration grid: deviation in total charge (<rho> - N_e) =   8.526513E-14
  Pulay mixing of updated and previous charge densities.

  Evaluating partitioned Hartree potential by multipole expansion.
  | Analytical far-field extrapolation by fixed multipoles:
  | Hartree multipole sum: apparent total charge =  -0.321504E-05
  Summing up the Hartree potential.
  Time summed over all CPUs for potential: real work        1.919 s, elapsed        1.930 s
  | RMS charge density error from multipole expansion :   0.162111E-01

  Integrating Hamiltonian matrix: batch-based integration.
  Time summed over all CPUs for integration: real work        5.121 s, elapsed        5.222 s

  Updating Kohn-Sham eigenvalues, eigenvectors, occupation numbers, and Fermi level.
  Solving generalized eigenproblem
  Updating Kohn-Sham eigenvalues and eigenfunctions.
  Solving real generalised eigenvalue problem by standard LAPACK (fast)
  Determining occupation numbers for Kohn-Sham eigenstates.
  | Chemical potential (Fermi level) in eV                 : -.18565690E+01
  | Error in electron count due to remaining E_F inaccuracy: -.73168138E-09
  | Maximum occupation number of highest empty state:  0.00E+00

  Highest occupied state (VBM) at     -6.89154772 eV
  | Occupation number:      2.00000000

  Lowest unoccupied state (CBM) at    -1.85656901 eV
  | Occupation number:      1.00000000

  Overall HOMO-LUMO gap:      5.03497871 eV.

  Total energy components:
  | Sum of eigenvalues            :        -168.59074618 Ha       -4587.58761754 eV
  | XC energy correction          :         -37.58792974 Ha       -1022.81960860 eV
  | XC potential correction       :          48.05043900 Ha        1307.51897111 eV
  | Free-atom electrostatic energy:        -142.54124954 Ha       -3878.74474844 eV
  | Hartree energy correction     :          -6.04297268 Ha        -164.43765324 eV
  | van der Waals energy corr.    :           0.00000000 Ha           0.00000000 eV
  | Entropy correction            :          -0.00010367 Ha          -0.00282095 eV
  | ---------------------------
  | Total energy                  :        -306.71245914 Ha       -8346.07065670 eV
  | Total energy, T -> 0          :        -306.71256281 Ha       -8346.07347765 eV  <-- do not rely on this value for anything but (periodic) metals
  | Electronic free energy        :        -306.71266648 Ha       -8346.07629860 eV

  Derived energy quantities:
  | Kinetic energy                :         306.11648979 Ha        8329.85350554 eV
  | Electrostatic energy          :        -575.24101920 Ha      -15653.10455364 eV
  | Energy correction for multipole
  | error in Hartree potential    :          -0.00360818 Ha          -0.09818351 eV
  | Sum of eigenvalues per atom                           :        -352.89135520 eV
  | Total energy (T->0) per atom                          :        -642.00565213 eV  <-- do not rely on this value for anything but (periodic) metals
  | Electronic free energy per atom                       :        -642.00586912 eV

  Self-consistency convergence accuracy:
  | Change of charge density      : 0.1021E+00
  | Change of sum of eigenvalues  : 0.2394E+02 eV
  | Change of total energy        : 0.1403E+00 eV

  End self-consistency iteration #     4       :  max(cpu_time)    wall_clock(cpu1)
  | Time for this iteration                    :        1.399 s           1.398 s
  | Charge density update                      :        0.454 s           0.453 s
  | Density mixing                             :        0.007 s           0.007 s
  | Hartree multipole update                   :        0.004 s           0.005 s
  | Hartree multipole summation                :        0.242 s           0.242 s
  | Integration                                :        0.654 s           0.654 s
  | Solution of K.-S. eqns.                    :        0.035 s           0.035 s
  | Total energy evaluation                    :        0.000 s           0.001 s
------------------------------------------------------------

------------------------------------------------------------
          Begin self-consistency iteration #    5

  Date     :  20150727, Time     :  120856.097
------------------------------------------------------------
  Evaluating new KS density.
  Integration grid: deviation in total charge (<rho> - N_e) =  -7.316601E-10
  Pulay mixing of updated and previous charge densities.

  Evaluating partitioned Hartree potential by multipole expansion.
  | Analytical far-field extrapolation by fixed multipoles:
  | Hartree multipole sum: apparent total charge =  -0.336858E-05
  Summing up the Hartree potential.
  Time summed over all CPUs for potential: real work        1.919 s, elapsed        1.930 s
  | RMS charge density error from multipole expansion :   0.166156E-01

  Integrating Hamiltonian matrix: batch-based integration.
  Time summed over all CPUs for integration: real work        5.122 s, elapsed        5.221 s

  Updating Kohn-Sham eigenvalues, eigenvectors, occupation numbers, and Fermi level.
  Solving generalized eigenproblem
  Updating Kohn-Sham eigenvalues and eigenfunctions.
  Solving real generalised eigenvalue problem by standard LAPACK (fast)
  Determining occupation numbers for Kohn-Sham eigenstates.
  | Chemical potential (Fermi level) in eV                 : -.18506940E+01
  | Error in electron count due to remaining E_F inaccuracy: 0.42632564E-12
  | Maximum occupation number of highest empty state:  0.00E+00

  Highest occupied state (VBM) at     -1.85069400 eV
  | Occupation number:      1.00000000

  Lowest unoccupied state (CBM) at    -1.11729876 eV
  | Occupation number:      0.00000000

  Overall HOMO-LUMO gap:      0.73339524 eV.

  Total energy components:
  | Sum of eigenvalues            :        -168.51274973 Ha       -4585.46522592 eV
  | XC energy correction          :         -37.59876663 Ha       -1023.11449542 eV
  | XC potential correction       :          48.06413542 Ha        1307.89166967 eV
  | Free-atom electrostatic energy:        -142.54124954 Ha       -3878.74474844 eV
  | Hartree energy correction     :          -6.12370598 Ha        -166.63451804 eV
  | van der Waals energy corr.    :           0.00000000 Ha           0.00000000 eV
  | Entropy correction            :          -0.00010367 Ha          -0.00282095 eV
  | ---------------------------
  | Total energy                  :        -306.71233645 Ha       -8346.06731816 eV
  | Total energy, T -> 0          :        -306.71244012 Ha       -8346.07013911 eV  <-- do not rely on this value for anything but (periodic) metals
  | Electronic free energy        :        -306.71254379 Ha       -8346.07296005 eV

  Derived energy quantities:
  | Kinetic energy                :         306.15991626 Ha        8331.03519987 eV
  | Electrostatic energy          :        -575.27348609 Ha      -15653.98802261 eV
  | Energy correction for multipole
  | error in Hartree potential    :          -0.00381720 Ha          -0.10387133 eV
  | Sum of eigenvalues per atom                           :        -352.72809430 eV
  | Total energy (T->0) per atom                          :        -642.00539532 eV  <-- do not rely on this value for anything but (periodic) metals
  | Electronic free energy per atom                       :        -642.00561231 eV

  Self-consistency convergence accuracy:
  | Change of charge density      : 0.1968E-01
  | Change of sum of eigenvalues  : 0.2122E+01 eV
  | Change of total energy        : 0.3339E-02 eV

  End self-consistency iteration #     5       :  max(cpu_time)    wall_clock(cpu1)
  | Time for this iteration                    :        1.400 s           1.399 s
  | Charge density update                      :        0.454 s           0.453 s
  | Density mixing                             :        0.008 s           0.008 s
  | Hartree multipole update                   :        0.005 s           0.005 s
  | Hartree multipole summation                :        0.242 s           0.241 s
  | Integration                                :        0.654 s           0.653 s
  | Solution of K.-S. eqns.                    :        0.035 s           0.036 s
  | Total energy evaluation                    :        0.000 s           0.000 s
------------------------------------------------------------

------------------------------------------------------------
          Begin self-consistency iteration #    6

  Date     :  20150727, Time     :  120857.497
------------------------------------------------------------
  Evaluating new KS density.
  Integration grid: deviation in total charge (<rho> - N_e) =   4.476419E-13
  Pulay mixing of updated and previous charge densities.

  Evaluating partitioned Hartree potential by multipole expansion.
  | Analytical far-field extrapolation by fixed multipoles:
  | Hartree multipole sum: apparent total charge =  -0.336910E-05
  Summing up the Hartree potential.
  Time summed over all CPUs for potential: real work        1.919 s, elapsed        1.931 s
  | RMS charge density error from multipole expansion :   0.168331E-01

  Integrating Hamiltonian matrix: batch-based integration.
  Time summed over all CPUs for integration: real work        5.117 s, elapsed        5.222 s

  Updating Kohn-Sham eigenvalues, eigenvectors, occupation numbers, and Fermi level.
  Solving generalized eigenproblem
  Updating Kohn-Sham eigenvalues and eigenfunctions.
  Solving real generalised eigenvalue problem by standard LAPACK (fast)
  Determining occupation numbers for Kohn-Sham eigenstates.
  | Chemical potential (Fermi level) in eV                 : -.18540890E+01
  | Error in electron count due to remaining E_F inaccuracy: 0.17905677E-11
  | Maximum occupation number of highest empty state:  0.00E+00

  Highest occupied state (VBM) at     -1.85408901 eV
  | Occupation number:      1.00000000

  Lowest unoccupied state (CBM) at    -1.12104292 eV
  | Occupation number:      0.00000000

  Overall HOMO-LUMO gap:      0.73304609 eV.

  Total energy components:
  | Sum of eigenvalues            :        -168.52453952 Ha       -4585.78604258 eV
  | XC energy correction          :         -37.59864879 Ha       -1023.11128902 eV
  | XC potential correction       :          48.06368676 Ha        1307.87946101 eV
  | Free-atom electrostatic energy:        -142.54124954 Ha       -3878.74474844 eV
  | Hartree energy correction     :          -6.11159213 Ha        -166.30488325 eV
  | van der Waals energy corr.    :           0.00000000 Ha           0.00000000 eV
  | Entropy correction            :          -0.00010367 Ha          -0.00282095 eV
  | ---------------------------
  | Total energy                  :        -306.71234322 Ha       -8346.06750227 eV
  | Total energy, T -> 0          :        -306.71244689 Ha       -8346.07032322 eV  <-- do not rely on this value for anything but (periodic) metals
  | Electronic free energy        :        -306.71255056 Ha       -8346.07314416 eV

  Derived energy quantities:
  | Kinetic energy                :         306.14350359 Ha        8330.58858846 eV
  | Electrostatic energy          :        -575.25719802 Ha      -15653.54480171 eV
  | Energy correction for multipole
  | error in Hartree potential    :          -0.00395175 Ha          -0.10753262 eV
  | Sum of eigenvalues per atom                           :        -352.75277251 eV
  | Total energy (T->0) per atom                          :        -642.00540948 eV  <-- do not rely on this value for anything but (periodic) metals
  | Electronic free energy per atom                       :        -642.00562647 eV

  Self-consistency convergence accuracy:
  | Change of charge density      : 0.7272E-02
  | Change of sum of eigenvalues  : -.3208E+00 eV
  | Change of total energy        : -.1841E-03 eV

  End self-consistency iteration #     6       :  max(cpu_time)    wall_clock(cpu1)
  | Time for this iteration                    :        1.400 s           1.400 s
  | Charge density update                      :        0.453 s           0.453 s
  | Density mixing                             :        0.010 s           0.009 s
  | Hartree multipole update                   :        0.004 s           0.005 s
  | Hartree multipole summation                :        0.242 s           0.242 s
  | Integration                                :        0.654 s           0.654 s
  | Solution of K.-S. eqns.                    :        0.036 s           0.036 s
  | Total energy evaluation                    :        0.001 s           0.001 s
------------------------------------------------------------

------------------------------------------------------------
          Begin self-consistency iteration #    7

  Date     :  20150727, Time     :  120858.898
------------------------------------------------------------
  Evaluating new KS density.
  Integration grid: deviation in total charge (<rho> - N_e) =   1.790568E-12
  Pulay mixing of updated and previous charge densities.

  Evaluating partitioned Hartree potential by multipole expansion.
  | Analytical far-field extrapolation by fixed multipoles:
  | Hartree multipole sum: apparent total charge =  -0.336186E-05
  Summing up the Hartree potential.
  Time summed over all CPUs for potential: real work        1.918 s, elapsed        1.930 s
  | RMS charge density error from multipole expansion :   0.168809E-01

  Integrating Hamiltonian matrix: batch-based integration.
  Time summed over all CPUs for integration: real work        5.122 s, elapsed        5.236 s

  Updating Kohn-Sham eigenvalues, eigenvectors, occupation numbers, and Fermi level.
  Solving generalized eigenproblem
  Updating Kohn-Sham eigenvalues and eigenfunctions.
  Solving real generalised eigenvalue problem by standard LAPACK (fast)
  Determining occupation numbers for Kohn-Sham eigenstates.
  | Chemical potential (Fermi level) in eV                 : -.18627870E+01
  | Error in electron count due to remaining E_F inaccuracy: 0.20627056E-10
  | Maximum occupation number of highest empty state:  0.00E+00

  Highest occupied state (VBM) at     -1.86278702 eV
  | Occupation number:      1.00000000

  Lowest unoccupied state (CBM) at    -1.12805214 eV
  | Occupation number:      0.00000000

  Overall HOMO-LUMO gap:      0.73473488 eV.

  Total energy components:
  | Sum of eigenvalues            :        -168.55472781 Ha       -4586.60750781 eV
  | XC energy correction          :         -37.59535005 Ha       -1023.02152568 eV
  | XC potential correction       :          48.05917963 Ha        1307.75681556 eV
  | Free-atom electrostatic energy:        -142.54124954 Ha       -3878.74474844 eV
  | Hartree energy correction     :          -6.08017947 Ha        -165.45010125 eV
  | van der Waals energy corr.    :           0.00000000 Ha           0.00000000 eV
  | Entropy correction            :          -0.00010367 Ha          -0.00282095 eV
  | ---------------------------
  | Total energy                  :        -306.71232725 Ha       -8346.06706762 eV
  | Total energy, T -> 0          :        -306.71243092 Ha       -8346.06988857 eV  <-- do not rely on this value for anything but (periodic) metals
  | Electronic free energy        :        -306.71253458 Ha       -8346.07270951 eV

  Derived energy quantities:
  | Kinetic energy                :         306.16422514 Ha        8331.15245037 eV
  | Electrostatic energy          :        -575.28120233 Ha      -15654.19799231 eV
  | Energy correction for multipole
  | error in Hartree potential    :          -0.00403054 Ha          -0.10967670 eV
  | Sum of eigenvalues per atom                           :        -352.81596214 eV
  | Total energy (T->0) per atom                          :        -642.00537604 eV  <-- do not rely on this value for anything but (periodic) metals
  | Electronic free energy per atom                       :        -642.00559304 eV

  Self-consistency convergence accuracy:
  | Change of charge density      : 0.5447E-02
  | Change of sum of eigenvalues  : -.8215E+00 eV
  | Change of total energy        : 0.4346E-03 eV

  End self-consistency iteration #     7       :  max(cpu_time)    wall_clock(cpu1)
  | Time for this iteration                    :        1.402 s           1.401 s
  | Charge density update                      :        0.452 s           0.451 s
  | Density mixing                             :        0.010 s           0.011 s
  | Hartree multipole update                   :        0.005 s           0.004 s
  | Hartree multipole summation                :        0.242 s           0.242 s
  | Integration                                :        0.656 s           0.656 s
  | Solution of K.-S. eqns.                    :        0.036 s           0.036 s
  | Total energy evaluation                    :        0.001 s           0.001 s
------------------------------------------------------------

------------------------------------------------------------
          Begin self-consistency iteration #    8

  Date     :  20150727, Time     :  120900.300
------------------------------------------------------------
  Evaluating new KS density.
  Integration grid: deviation in total charge (<rho> - N_e) =   2.061995E-11
  Pulay mixing of updated and previous charge densities.

  Evaluating partitioned Hartree potential by multipole expansion.
  | Analytical far-field extrapolation by fixed multipoles:
  | Hartree multipole sum: apparent total charge =  -0.334400E-05
  Summing up the Hartree potential.
  Time summed over all CPUs for potential: real work        1.919 s, elapsed        1.931 s
  | RMS charge density error from multipole expansion :   0.168678E-01

  Integrating Hamiltonian matrix: batch-based integration.
  Time summed over all CPUs for integration: real work        5.137 s, elapsed        5.238 s

  Updating Kohn-Sham eigenvalues, eigenvectors, occupation numbers, and Fermi level.
  Solving generalized eigenproblem
  Updating Kohn-Sham eigenvalues and eigenfunctions.
  Solving real generalised eigenvalue problem by standard LAPACK (fast)
  Determining occupation numbers for Kohn-Sham eigenstates.
  | Chemical potential (Fermi level) in eV                 : -.18711861E+01
  | Error in electron count due to remaining E_F inaccuracy: -.17053026E-12
  | Maximum occupation number of highest empty state:  0.00E+00

  Highest occupied state (VBM) at     -6.89622307 eV
  | Occupation number:      2.00000000

  Lowest unoccupied state (CBM) at    -1.87118606 eV
  | Occupation number:      1.00000000

  Overall HOMO-LUMO gap:      5.02503702 eV.

  Total energy components:
  | Sum of eigenvalues            :        -168.58904945 Ha       -4587.54144705 eV
  | XC energy correction          :         -37.59183283 Ha       -1022.92581715 eV
  | XC potential correction       :          48.05449618 Ha        1307.62937258 eV
  | Free-atom electrostatic energy:        -142.54124954 Ha       -3878.74474844 eV
  | Hartree energy correction     :          -6.04468420 Ha        -164.48422603 eV
  | van der Waals energy corr.    :           0.00000000 Ha           0.00000000 eV
  | Entropy correction            :          -0.00010367 Ha          -0.00282095 eV
  | ---------------------------
  | Total energy                  :        -306.71231984 Ha       -8346.06686610 eV
  | Total energy, T -> 0          :        -306.71242351 Ha       -8346.06968705 eV  <-- do not rely on this value for anything but (periodic) metals
  | Electronic free energy        :        -306.71252718 Ha       -8346.07250800 eV

  Derived energy quantities:
  | Kinetic energy                :         306.17755473 Ha        8331.51516704 eV
  | Electrostatic energy          :        -575.29804174 Ha      -15654.65621599 eV
  | Energy correction for multipole
  | error in Hartree potential    :          -0.00407140 Ha          -0.11078838 eV
  | Sum of eigenvalues per atom                           :        -352.88780362 eV
  | Total energy (T->0) per atom                          :        -642.00536054 eV  <-- do not rely on this value for anything but (periodic) metals
  | Electronic free energy per atom                       :        -642.00557754 eV

  Self-consistency convergence accuracy:
  | Change of charge density      : 0.2775E-02
  | Change of sum of eigenvalues  : -.9339E+00 eV
  | Change of total energy        : 0.2015E-03 eV

  End self-consistency iteration #     8       :  max(cpu_time)    wall_clock(cpu1)
  | Time for this iteration                    :        1.408 s           1.408 s
  | Charge density update                      :        0.457 s           0.456 s
  | Density mixing                             :        0.012 s           0.012 s
  | Hartree multipole update                   :        0.004 s           0.004 s
  | Hartree multipole summation                :        0.242 s           0.243 s
  | Integration                                :        0.656 s           0.655 s
  | Solution of K.-S. eqns.                    :        0.036 s           0.035 s
  | Total energy evaluation                    :        0.000 s           0.000 s
------------------------------------------------------------

------------------------------------------------------------
          Begin self-consistency iteration #    9

  Date     :  20150727, Time     :  120901.708
------------------------------------------------------------
  Evaluating new KS density.
  Integration grid: deviation in total charge (<rho> - N_e) =  -1.776357E-13
  Pulay mixing of updated and previous charge densities.

  Evaluating partitioned Hartree potential by multipole expansion.
  | Analytical far-field extrapolation by fixed multipoles:
  | Hartree multipole sum: apparent total charge =  -0.334156E-05
  Summing up the Hartree potential.
  Time summed over all CPUs for potential: real work        1.919 s, elapsed        1.930 s
  | RMS charge density error from multipole expansion :   0.168559E-01

  Integrating Hamiltonian matrix: batch-based integration.
  Time summed over all CPUs for integration: real work        5.120 s, elapsed        5.227 s

  Updating Kohn-Sham eigenvalues, eigenvectors, occupation numbers, and Fermi level.
  Solving generalized eigenproblem
  Updating Kohn-Sham eigenvalues and eigenfunctions.
  Solving real generalised eigenvalue problem by standard LAPACK (fast)
  Determining occupation numbers for Kohn-Sham eigenstates.
  | Chemical potential (Fermi level) in eV                 : -.18711393E+01
  | Error in electron count due to remaining E_F inaccuracy: -.11084467E-11
  | Maximum occupation number of highest empty state:  0.00E+00

  Highest occupied state (VBM) at     -6.89235530 eV
  | Occupation number:      2.00000000

  Lowest unoccupied state (CBM) at    -1.87113926 eV
  | Occupation number:      1.00000000

  Overall HOMO-LUMO gap:      5.02121603 eV.

  Total energy components:
  | Sum of eigenvalues            :        -168.58683917 Ha       -4587.48130216 eV
  | XC energy correction          :         -37.59210587 Ha       -1022.93324687 eV
  | XC potential correction       :          48.05486812 Ha        1307.63949341 eV
  | Free-atom electrostatic energy:        -142.54124954 Ha       -3878.74474844 eV
  | Hartree energy correction     :          -6.04699237 Ha        -164.54703442 eV
  | van der Waals energy corr.    :           0.00000000 Ha           0.00000000 eV
  | Entropy correction            :          -0.00010367 Ha          -0.00282095 eV
  | ---------------------------
  | Total energy                  :        -306.71231883 Ha       -8346.06683848 eV
  | Total energy, T -> 0          :        -306.71242249 Ha       -8346.06965943 eV  <-- do not rely on this value for anything but (periodic) metals
  | Electronic free energy        :        -306.71252616 Ha       -8346.07248037 eV

  Derived energy quantities:
  | Kinetic energy                :         306.18151906 Ha        8331.62304189 eV
  | Electrostatic energy          :        -575.30173202 Ha      -15654.75663349 eV
  | Energy correction for multipole
  | error in Hartree potential    :          -0.00406576 Ha          -0.11063502 eV
  | Sum of eigenvalues per atom                           :        -352.88317709 eV
  | Total energy (T->0) per atom                          :        -642.00535842 eV  <-- do not rely on this value for anything but (periodic) metals
  | Electronic free energy per atom                       :        -642.00557541 eV

  Self-consistency convergence accuracy:
  | Change of charge density      : 0.6788E-03
  | Change of sum of eigenvalues  : 0.6014E-01 eV
  | Change of total energy        : 0.2762E-04 eV

  End self-consistency iteration #     9       :  max(cpu_time)    wall_clock(cpu1)
  | Time for this iteration                    :        1.410 s           1.410 s
  | Charge density update                      :        0.459 s           0.459 s
  | Density mixing                             :        0.013 s           0.013 s
  | Hartree multipole update                   :        0.004 s           0.004 s
  | Hartree multipole summation                :        0.242 s           0.242 s
  | Integration                                :        0.655 s           0.655 s
  | Solution of K.-S. eqns.                    :        0.036 s           0.036 s
  | Total energy evaluation                    :        0.000 s           0.001 s
------------------------------------------------------------

------------------------------------------------------------
          Begin self-consistency iteration #   10

  Date     :  20150727, Time     :  120903.119
------------------------------------------------------------
  Evaluating new KS density.
  Integration grid: deviation in total charge (<rho> - N_e) =  -1.108447E-12
[...]
  | Electronic free energy        :        -306.71468374 Ha       -8346.13119098 eV

  Derived energy quantities:
  | Kinetic energy                :         306.18086427 Ha        8331.60522410 eV
  | Electrostatic energy          :        -575.30076777 Ha      -15654.73039494 eV
  | Energy correction for multipole
  | error in Hartree potential    :          -0.00408169 Ha          -0.11106840 eV
  | Sum of eigenvalues per atom                           :        -352.87960794 eV
  | Total energy (T->0) per atom                          :        -642.00987462 eV  <-- do not rely on this value for anything but (periodic) metals
  | Electronic free energy per atom                       :        -642.01009161 eV

  atomic forces [eV/Ang]:
  -----------------------
  atom #    1
   Hellmann-Feynman + Multipole  : -.254504E+01 -.740842E+01 -.740645E+01
   Pulay + GGA                   : 0.305102E+01 0.870329E+01 0.588548E+01
   Van der Waals               : 0.787580E-02 -.290525E-02 -.185498E-02
   ----------------------------------------------------------------
   Total forces(   1)            : 0.513858E+00 0.129197E+01 -.152283E+01
  atom #    2
   Hellmann-Feynman + Multipole  : 0.310345E+00 -.693324E+00 0.212734E+00
   Pulay + GGA                   : -.239465E-01 0.591308E-01 -.342274E-01
   Van der Waals               : 0.188970E-02 0.249117E-02 -.426578E-03
   ----------------------------------------------------------------
   Total forces(   2)            : 0.288288E+00 -.631702E+00 0.178080E+00
  atom #    3
   Hellmann-Feynman + Multipole  : -.838526E+00 -.274729E+00 0.860082E-01
   Pulay + GGA                   : 0.129137E+00 0.667212E-02 -.135396E-01
   Van der Waals               : 0.482575E-02 -.593051E-02 -.361469E-02
   ----------------------------------------------------------------
   Total forces(   3)            : -.704563E+00 -.273987E+00 0.688540E-01
  atom #    4
   Hellmann-Feynman + Multipole  : 0.362443E-02 -.161023E+00 0.941289E+00
   Pulay + GGA                   : -.321142E-01 -.849691E-02 0.771404E-01
   Van der Waals               : 0.313024E-02 0.537073E-04 0.263896E-02
   ----------------------------------------------------------------
   Total forces(   4)            : -.253596E-01 -.169467E+00 0.102107E+01
  atom #    5
   Hellmann-Feynman + Multipole  : 0.742648E+01 -.563207E+01 -.761498E+01
   Pulay + GGA                   : -.763250E+01 0.404178E+01 0.628614E+01
   Van der Waals               : -.814050E-04 0.267697E-02 0.320963E-02
   ----------------------------------------------------------------
   Total forces(   5)            : -.206101E+00 -.158761E+01 -.132564E+01
  atom #    6
   Hellmann-Feynman + Multipole  : -.347838E-01 0.101933E+01 0.108032E+01
   Pulay + GGA                   : 0.321734E-01 0.111233E+00 0.114432E+00
   Van der Waals               : -.242990E-02 0.111617E-02 0.435556E-02
   ----------------------------------------------------------------
   Total forces(   6)            : -.504032E-02 0.113168E+01 0.119911E+01
  atom #    7
   Hellmann-Feynman + Multipole  : 0.192883E+00 0.443463E+00 0.278895E+00
   Pulay + GGA                   : -.130072E+00 -.653053E-01 0.480041E-01
   Van der Waals               : 0.524124E-03 0.214491E-02 0.983257E-04
   ----------------------------------------------------------------
   Total forces(   7)            : 0.633355E-01 0.380303E+00 0.326998E+00
  atom #    8
   Hellmann-Feynman + Multipole  : -.640606E+01 -.717830E+01 0.887829E+01
   Pulay + GGA                   : 0.690692E+01 0.661779E+01 -.577892E+01
   Van der Waals               : -.127057E-02 0.367499E-02 0.238175E-02
   ----------------------------------------------------------------
   Total forces(   8)            : 0.499596E+00 -.556833E+00 0.310176E+01
  atom #    9
   Hellmann-Feynman + Multipole  : -.687674E-01 -.156349E+00 -.107615E+00
   Pulay + GGA                   : 0.471246E-01 0.120200E+00 0.417387E-01
   Van der Waals               : 0.397893E-03 0.473832E-02 0.334802E-02
   ----------------------------------------------------------------
   Total forces(   9)            : -.212449E-01 -.314111E-01 -.625283E-01
  atom #   10
   Hellmann-Feynman + Multipole  : -.323605E+00 0.428205E+00 -.278312E+01
   Pulay + GGA                   : -.384183E-01 0.230030E-01 -.138755E+00
   Van der Waals               : -.560362E-03 0.135363E-02 0.503139E-03
   ----------------------------------------------------------------
   Total forces(  10)            : -.362584E+00 0.452562E+00 -.292137E+01
  atom #   11
   Hellmann-Feynman + Multipole  : -.231388E+01 -.322745E+01 -.167487E+02
   Pulay + GGA                   : 0.306266E+01 0.353107E+01 0.148785E+02
   Van der Waals               : -.774040E-02 -.450754E-02 -.397894E-02
   ----------------------------------------------------------------
   Total forces(  11)            : 0.741040E+00 0.299106E+00 -.187420E+01
  atom #   12
   Hellmann-Feynman + Multipole  : -.369444E+00 -.205600E+00 0.380924E+00
   Pulay + GGA                   : 0.108750E+00 0.761302E-01 0.568514E-01
   Van der Waals               : -.275736E-02 -.239672E-02 -.138135E-02
   ----------------------------------------------------------------
   Total forces(  12)            : -.263451E+00 -.131867E+00 0.436394E+00
  atom #   13
   Hellmann-Feynman + Multipole  : -.405482E+00 -.124495E+00 0.126293E+01
   Pulay + GGA                   : -.105381E+00 -.506223E-01 0.110604E+00
   Van der Waals               : -.380350E-02 -.250985E-02 -.527884E-02
   ----------------------------------------------------------------
   Total forces(  13)            : -.514666E+00 -.177627E+00 0.136825E+01
  Timings for vdw_correction_hirshfeld (Tkatchenko-Scheffler 2009):
  | CPU time:        3.777 s, Wall clock time:        3.780 s.
  Removing unitary transformations (pure translations, rotations) from forces on atoms.
  Atomic forces before filtering:
  | Net force on center of mass :  0.310685E-02 -.488317E-02 -.605308E-02 eV/A
  | Net torque on center of mass:  0.262992E-01 -.105740E-01 -.384200E-02 eV
  Atomic forces after filtering:
  | Net force on center of mass :  0.267609E-15 0.892031E-16 0.000000E+00 eV/A
  | Net torque on center of mass:  -.287946E-14 0.000000E+00 -.113290E-14 eV
 
  Energy and forces in a compact form:
  | Total energy uncorrected      :         -0.834612554908351E+04 eV
  | Total energy corrected        :         -0.834612837003143E+04 eV  <-- do not rely on this value for anything but (periodic) metals
  | Electronic free energy        :         -0.834613119097934E+04 eV
  Total atomic forces (unitary forces cleaned) [eV/Ang]:
  |   1          0.513455368998951E+00          0.129189734123665E+01         -0.152178243249700E+01
  |   2          0.287881338668175E+00         -0.631930837365270E+00          0.178768129589826E+00
  |   3         -0.704949173711947E+00         -0.274080509332245E+00          0.696696037021487E-01
  |   4         -0.256606416771476E-01         -0.169091162142518E+00          0.102220251141871E+01
  |   5         -0.206243026802594E+00         -0.158653868347321E+01         -0.132438553502276E+01
  |   6         -0.508810310729813E-02          0.113300744842158E+01          0.119999970014371E+01
  |   7          0.632061722982792E-01          0.381544182558535E+00          0.328555145597693E+00
  |   8          0.499194898033632E+00         -0.557221277736091E+00          0.310197255943524E+01
  |   9         -0.215731739678468E-01         -0.316566396838406E-01         -0.627315021375571E-01
  |  10         -0.363080558553907E+00          0.451765489175740E+00         -0.292120659466234E+01
  |  11          0.740976578074599E+00          0.299848165321515E+00         -0.187466271682614E+01
  |  12         -0.263455784195521E+00         -0.131003886177060E+00          0.435612720166106E+00
  |  13         -0.514663894057373E+00         -0.176539630803778E+00          0.136798841109237E+01
 
  ------------------------------------ 
  Start decomposition of the XC Energy 
  ------------------------------------ 
  Hartree-Fock part   :          0.000000000 Ha              0.000000000 eV
  ------------------------------------ 
  X Energy            :        -36.261848989 Ha           -986.735115514 eV
  C Energy GGA        :         -1.330566959 Ha            -36.206569131 eV
  Total XC Energy     :        -37.592415948 Ha          -1022.941684644 eV
  LDA X and C from self-consistent density 
  X Energy LDA        :        -32.685863997 Ha           -889.427612934 eV
  C Energy LDA        :         -2.679683129 Ha            -72.917887965 eV
  ------------------------------------ 
  End decomposition of the XC Energy 
  ------------------------------------ 
  Performing Hirshfeld analysis of fragment charges and moments.
  ----------------------------------------------------------------------
  | Atom     1: O
  |   Hirshfeld charge        :     -0.13529828
  |   Free atom volume        :     23.95238533
  |   Hirshfeld volume        :     21.91499589
  |   Hirshfeld dipole vector :     -0.00006748       0.02795051       0.02738607
  |   Hirshfeld dipole moment :      0.03913097
  |   Hirshfeld second moments:      0.08298056      -0.00425792      -0.00421789
  |                                 -0.00425792       0.03696797      -0.02568316
  |                                 -0.00421789      -0.02568316       0.04913779
  ----------------------------------------------------------------------
  | Atom     2: H
  |   Hirshfeld charge        :      0.10690842
  |   Free atom volume        :     10.44207651
  |   Hirshfeld volume        :     10.13763291
  |   Hirshfeld dipole vector :     -0.00726214       0.00993466      -0.00038785
  |   Hirshfeld dipole moment :      0.01231205
  |   Hirshfeld second moments:      0.03433327       0.01588190       0.00544833
  |                                  0.01588190       0.02207027       0.00667053
  |                                  0.00544833       0.00667053       0.04915253
  ----------------------------------------------------------------------
  | Atom     3: H
  |   Hirshfeld charge        :      0.12391718
  |   Free atom volume        :     10.44207651
  |   Hirshfeld volume        :     11.35883734
  |   Hirshfeld dipole vector :      0.03228303       0.00933791       0.00879300
  |   Hirshfeld dipole moment :      0.03473770
  |   Hirshfeld second moments:      0.00064636      -0.01555828      -0.00248196
  |                                 -0.01555828       0.02939373       0.00514601
  |                                 -0.00248196       0.00514601       0.03088371
  ----------------------------------------------------------------------
  | Atom     4: H
  |   Hirshfeld charge        :      0.10073956
  |   Free atom volume        :     10.44207651
  |   Hirshfeld volume        :      9.92849522
  |   Hirshfeld dipole vector :     -0.01327586       0.00043448       0.01437076
  |   Hirshfeld dipole moment :      0.01956926
  |   Hirshfeld second moments:      0.05113786       0.01060867       0.00888966
  |                                  0.01060867       0.05165198       0.00091461
  |                                  0.00888966       0.00091461       0.01378413
  ----------------------------------------------------------------------
  | Atom     5: O
  |   Hirshfeld charge        :     -0.23673328
  |   Free atom volume        :     23.95238533
  |   Hirshfeld volume        :     23.01334389
  |   Hirshfeld dipole vector :     -0.02395479       0.01740228      -0.00823150
  |   Hirshfeld dipole moment :      0.03073157
  |   Hirshfeld second moments:      0.00379149       0.05600364      -0.01456906
  |                                  0.05600364       0.01275182       0.01643216
  |                                 -0.01456906       0.01643216       0.03909918
  ----------------------------------------------------------------------
  | Atom     6: H
  |   Hirshfeld charge        :      0.08498411
  |   Free atom volume        :     10.44207651
  |   Hirshfeld volume        :     11.98882802
  |   Hirshfeld dipole vector :      0.02457171       0.04171571       0.01893960
  |   Hirshfeld dipole moment :      0.05198728
  |   Hirshfeld second moments:      0.00371238       0.04112640      -0.01133323
  |                                  0.04112640       0.00039098      -0.00761003
  |                                 -0.01133323      -0.00761003       0.01074497
  ----------------------------------------------------------------------
  | Atom     7: H
  |   Hirshfeld charge        :      0.10609150
  |   Free atom volume        :     10.44207651
  |   Hirshfeld volume        :     11.98563880
  |   Hirshfeld dipole vector :     -0.05007460      -0.03949478       0.00506896
  |   Hirshfeld dipole moment :      0.06397654
  |   Hirshfeld second moments:     -0.00274287       0.01986954       0.00129148
  |                                  0.01986954       0.01306644       0.01152115
  |                                  0.00129148       0.01152115       0.02760147
  ----------------------------------------------------------------------
  | Atom     8: O
  |   Hirshfeld charge        :     -0.21177383
  |   Free atom volume        :     23.95238533
  |   Hirshfeld volume        :     22.80355428
  |   Hirshfeld dipole vector :      0.03500197      -0.00134924      -0.02148181
  |   Hirshfeld dipole moment :      0.04109047
  |   Hirshfeld second moments:     -0.01616307       0.00289428       0.04104601
  |                                  0.00289428       0.05437990       0.00625626
  |                                  0.04104601       0.00625626       0.04703052
  ----------------------------------------------------------------------
  | Atom     9: H
  |   Hirshfeld charge        :      0.10461877
  |   Free atom volume        :     10.44207651
  |   Hirshfeld volume        :     11.98184278
  |   Hirshfeld dipole vector :      0.02309613       0.03774929       0.01953864
  |   Hirshfeld dipole moment :      0.04837560
  |   Hirshfeld second moments:     -0.01195216      -0.01436644       0.02231484
  |                                 -0.01436644       0.01902589      -0.00539938
  |                                  0.02231484      -0.00539938       0.01875638
  ----------------------------------------------------------------------
  | Atom    10: H
  |   Hirshfeld charge        :      0.10769556
  |   Free atom volume        :     10.44207651
  |   Hirshfeld volume        :     11.83999327
  |   Hirshfeld dipole vector :     -0.01320480      -0.00030073      -0.06141622
  |   Hirshfeld dipole moment :      0.06282045
  |   Hirshfeld second moments:      0.00080739       0.00343061       0.02044926
  |                                  0.00343061       0.03740274       0.00761978
  |                                  0.02044926       0.00761978       0.01410397
  ----------------------------------------------------------------------
  | Atom    11: O
  |   Hirshfeld charge        :     -0.33977537
  |   Free atom volume        :     23.95238533
  |   Hirshfeld volume        :     24.55868172
  |   Hirshfeld dipole vector :      0.02104067       0.02072445       0.07538306
  |   Hirshfeld dipole moment :      0.08096183
  |   Hirshfeld second moments:     -0.00192597       0.07031250      -0.01603829
  |                                  0.07031250      -0.06397041      -0.00196383
  |                                 -0.01603829      -0.00196383      -0.05257771
  ----------------------------------------------------------------------
  | Atom    12: H
  |   Hirshfeld charge        :      0.11694890
  |   Free atom volume        :     10.44207651
  |   Hirshfeld volume        :      9.48154346
  |   Hirshfeld dipole vector :      0.09204737       0.06305218       0.03267367
  |   Hirshfeld dipole moment :      0.11625775
  |   Hirshfeld second moments:      0.07094299       0.02399264      -0.01445417
  |                                  0.02399264       0.04387153      -0.00646378
  |                                 -0.01445417      -0.00646378       0.05503266
  ----------------------------------------------------------------------
  | Atom    13: H
  |   Hirshfeld charge        :      0.07169166
  |   Free atom volume        :     10.44207651
  |   Hirshfeld volume        :     11.22508214
  |   Hirshfeld dipole vector :     -0.03759148      -0.02194723       0.05523369
  |   Hirshfeld dipole moment :      0.07032468
  |   Hirshfeld second moments:      0.01822905       0.03844252       0.01138842
  |                                  0.03844252       0.01363340       0.01283904
  |                                  0.01138842       0.01283904       0.01128065
  ----------------------------------------------------------------------


------------------------------------------------------------------------------
  Final output of selected total energy values:

  The following output summarizes some interesting total energy values
  at the end of a run (AFTER all relaxation, molecular dynamics, etc.).

  | Total energy of the DFT / Hartree-Fock s.c.f. calculation      :          -8346.125549084 eV
  | Final zero-broadening corrected energy (caution - metals only) :          -8346.128370031 eV
  | For reference only, the value of 1 Hartree used in FHI-aims is :             27.211384500 eV

  Before relying on these values, please be sure to understand exactly which
  total energy value is referred to by a given number. Different objects may
  all carry the same name 'total energy'. Definitions:

  Total energy of the DFT / Hartree-Fock s.c.f. calculation:
  | Note that this energy does not include ANY quantities calculated after the
  | s.c.f. cycle, in particular not ANY RPA, MP2, etc. many-body perturbation terms.

  Final zero-broadening corrected energy:
  | For metallic systems only, a broadening of the occupation numbers at the Fermi
  | level can be extrapolated back to zero broadening by an electron-gas inspired
  | formula. For all systems that are not real metals, this value can be
  | meaningless and should be avoided.

------------------------------------------------------------------------------

------------------------------------------------------------
          Leaving FHI-aims.
          Date     :  20150727, Time     :  120915.853

          Computational steps:
          | Number of self-consistency cycles          :           16

          Detailed time accounting                     :  max(cpu_time)    wall_clock(cpu1)
          | Total time                                 :       27.275 s          27.309 s
          | Preparation time                           :        0.174 s           0.476 s
          | Grid partitioning                          :        0.137 s           0.137 s
          | Preloading free-atom quantities on grid    :        0.014 s           0.013 s
          | Free-atom superposition energy             :        0.052 s           0.052 s
          | Total time for integrations                :       11.478 s          11.477 s
          | Total time for solution of K.-S. equations :        0.711 s           0.710 s
          | Total time for density & force components  :        9.235 s           9.229 s
          | Total time for mixing                      :        0.175 s           0.174 s
          | Total time for Hartree multipole update    :        0.071 s           0.071 s
          | Total time for Hartree multipole sum       :        4.675 s           4.676 s
          | Total time for total energy evaluation     :        0.009 s           0.017 s
          | Total time for scaled ZORA corrections     :        0.000 s           0.000 s
          | Total time for TS (2009) vdW correction    :        0.043 s           0.046 s

          Have a nice day.
------------------------------------------------------------
