  MPI-parallelism will be employed.
------------------------------------------------------------
          Invoking FHI-aims ...
          Version 081213
          Compiled on 2013/08/29 at 17:41:06 on host generoso.

          When using FHI-aims, please cite the following reference:

          Volker Blum, Ralf Gehrke, Felix Hanke, Paula Havu,
          Ville Havu, Xinguo Ren, Karsten Reuter, and Matthias Scheffler,
          'Ab Initio Molecular Simulations with Numeric Atom-Centered Orbitals: FHI-aims',
          Computer Physics Communications 180, 2175-2196 (2009)

          For any questions about FHI-aims, please visit the aimsclub website
          with its forums and wiki. Contributions to both the forums and the
          wiki are warmly encouraged - they are for you, and everyone is welcome there.

------------------------------------------------------------

  Date     :  20150727, Time     :  122303.305
  Time zero on CPU 1             :   0.439920000000000E-01  s.
  Internal wall clock time zero  :           207231783.305  s.

  Using        8 parallel tasks.
  Task        0 on host gen59 reporting.
  Task        1 on host gen59 reporting.
  Task        2 on host gen59 reporting.
  Task        3 on host gen59 reporting.
  Task        4 on host gen59 reporting.
  Task        5 on host gen59 reporting.
  Task        6 on host gen59 reporting.
  Task        7 on host gen59 reporting.

  Performing system and environment tests:
  | Environment variable OMP_NUM_THREADS correctly set to 1.
  | Checking for scalapack...
  | No scalapack compiled in.

  Obtaining array dimensions for all initial allocations:
  
  -----------------------------------------------------------------------
  Parsing control.in (first pass over file, find array dimensions only).
  The contents of control.in will be repeated verbatim below
  unless switched off by setting 'verbatim_writeout .false.' .
  in the first line of control.in .
  -----------------------------------------------------------------------
  
  #########################################################################################
  #
  #  Volker Blum, FHI 2008 : Test run input file control.in
  #
  #########################################################################################
  #
  #  Physical model
  #
    xc                 rpbe
    spin               none
    relativistic       atomic_zora scalar
    charge             0.
   vdw_correction_hirshfeld
  #
  #  SCF convergence
  #
    occupation_type    gaussian 0.01
    mixer              pulay
      n_max_pulay        10
      charge_mix_param   0.1
    sc_accuracy_rho    5E-5
    sc_accuracy_eev    5E-3
    sc_accuracy_etot   5E-6
    sc_iter_limit      3000
  #
  #  Eigenvalue solver
  #
    KS_method          lapack
      empty_states       8
      basis_threshold    0.e-5
  #
  #  Efficiency
  #
  #   all previous settings are now default, except stratmann still
  #   undecided. Continue to handle stratmann with care, if at all.
  #
  #  partition_type stratmann
    partition_type rho_r2
  #  hartree_partition_type stratmann
  #
  #  Oprions for large clusters (100's of atoms: memory saving / better scaling)
  #
  # for periodic systems:
  #
    density_update_method orbital
    packed_matrix_format none
  #  k_grid 6 6 6
  #  output k_eigenvalue 1
  #  distributed_spline_storage .true.
  #
  #  Relaxation
  #
  #  relax_geometry   bfgs 5.e-3
    sc_accuracy_forces 5.E-4
    final_forces_cleaned .true.
  #
  #  Output options
  #
  #  output mulliken
    output Hirshfeld
  #  output dipole
  
  #harmonic_length_scale 0.001
  
  ################################################################################
  #
  #  FHI-aims code project
  #  VB, Fritz-Haber Institut, 2007
  #
  #  Suggested "safe" defaults for H atom (to be pasted into control.in file)
  #  Basis constructed for a non-relativistic H2 molecule using the
  #  PW-LDA functional.
  #
  ################################################################################
    species        H
  #     global species definitions
      nucleus             1
      cut_pot             4.0  2.0  1.0
      cut_free_atom       finite 8.0
      logarithmic         0.00010000 100.00  1.0123
      basis_dep_cutoff    1d-4  # 1d-4 is safe default - please check 5d-4 if you wish!
      radial_base         24 7.0
      radial_multiplier   2
      angular_grids       specified
        division   0.2783  110
        division   0.3822  194
        division   0.5626  302
  #      division   0.5922  434
  #      division   0.6227  590
  #      division   0.7206  770
        outer_grid  302
      l_hartree           4
  ################################################################################
  #
  #  Definition of "minimal" basis
  #
  ################################################################################
  #     valence basis states
      valence      1  s   1.
  #     ion occupancy
      ion_occ      1  s   0.5
  ################################################################################
  #
  #  Suggested additional basis functions. For production calculations,
  #  uncomment them one after another (the most important basis functions are
  #  listed first).
  #
  ################################################################################
  #  "First tier" - improvements: -1014.90 meV to -62.69 meV
       hydro 2 s 2.1
       hydro 2 p 3.5
  #  "Second tier" - improvements: -12.89 meV to -1.83 meV
       hydro 1 s 0.85
       hydro 2 p 3.7
       hydro 2 s 1.2
       hydro 3 d 7
  #  "Third tier" - improvements: -0.25 meV to -0.12 meV
  #     hydro 4 f 11.2
  #     hydro 3 p 4.8
  #     hydro 4 d 9
  #     hydro 3 s 3.2
  
  ################################################################################
  #
  #  FHI-aims code project
  #  VB, Fritz-Haber Institut, 2007
  #
  #  Suggested "safe" defaults for O atom (to be pasted into control.in file)
  #  All values have been tested for a non-relativistic, non-spinpolarized O2
  #  molecule using the PW-LDA functional. Validity for PBE is expected.
  #
  #  Constructed for dimers: 1.0 A, 1.208 A, 1.5 A, 2.0 A, 3.0 A
  #
  ################################################################################
    species        O
  #     global species definitions
      nucleus             8
      mass                15.9994
      l_hartree           4
      cut_pot             4.0  2.0  1.0
      cut_free_atom       finite 8.0
      basis_dep_cutoff    1d-4  # 1d-4 is safe default - please check 5d-4 if you wish!
      logarithmic         0.00010000 100.00  1.0123
      radial_base         36 7.0
      radial_multiplier   2
       angular_grids specified
        division   0.4087  110
        division   0.5181  194
        division   0.6184  302
  #      division   0.7315  434
  #      division   0.7934  590
  #      division   0.9656  770
  #      division   1.4041  974
  #      outer_grid 974
        outer_grid 302
  ################################################################################
  #
  #  Definition of "minimal" basis
  #
  ################################################################################
  #     valence basis states
      valence      2  s   2.
      valence      2  p   4.
  #     ion occupancy
      ion_occ      2  s   1.
      ion_occ      2  p   3.
  ################################################################################
  #
  #  Suggested additional basis functions. For production calculations,
  #  uncomment them one after another (the most important basis functions are
  #  listed first).
  #
  ################################################################################
  #  "First tier" - improvements: -699.05 meV to -159.38 meV
       hydro 2 p 1.8
       hydro 3 d 7.6
       hydro 3 s 6.4
  #  "Second tier" - improvements: -49.91 meV to -5.39 meV
       hydro 4 f 11.6
       hydro 3 p 6.2
       hydro 3 d 5.6
       hydro 5 g 17.6
       hydro 1 s 0.75
  #  "Third tier" - improvements: -2.83 meV to -0.50 meV
  #     ionic 2 p auto
  #     hydro 4 f 10.8
  #     hydro 4 d 4.7
  #     hydro 2 s 6.8
  #  "Fourth tier" - improvements: -0.40 meV to -0.12 meV
  #     hydro 3 p 5
  #     hydro 3 s 3.3
  #     hydro 5 g 15.6
  #     hydro 4 f 17.6
  #     hydro 4 d 14
  # Further basis functions - -0.08 meV and below
  #     hydro 3 s 2.1
  #     hydro 4 d 11.6
  #     hydro 3 p 16
  #     hydro 2 s 17.2
  
  
  -----------------------------------------------------------------------
  Completed first pass over input file control.in .
  -----------------------------------------------------------------------
  
  
  -----------------------------------------------------------------------
  Parsing geometry.in (first pass over file, find array dimensions only).
  The contents of geometry.in will be repeated verbatim below
  unless switched off by setting 'verbatim_writeout .false.' .
  in the first line of geometry.in .
  -----------------------------------------------------------------------
  
  atom      -4.053030000      0.065001000     -1.525160000  O
  atom      -4.566710000      0.974813000     -1.912820000  H
  atom      -3.067820000      0.330172000     -1.477310000  H
  atom      -4.370360000     -0.049164000     -0.572274000  H
  atom      -4.581760000     -0.256435000      0.939478000  O
  atom      -4.349860000      0.471090000      1.504340000  H
  atom      -5.393870000     -0.726611000      1.228070000  H
  atom      -1.645860000      0.870179000     -1.502250000  O
  atom      -1.568890000      1.501730000     -0.721051000  H
  atom      -0.824432000      0.282220000     -1.377720000  H
  atom      -4.066610000      4.258280000     -0.900064000  O
  atom      -3.224110000      3.876870000     -0.569443000  H
  atom      -3.737450000      5.116530000     -1.322720000  H
  
  -----------------------------------------------------------------------
  Completed first pass over input file geometry.in .
  -----------------------------------------------------------------------
  
 
  Basic array size parameters: 
  | Number of species                 :        2
  | Number of atoms                   :       13
  | Max. basis fn. angular momentum   :        4
  | Max. atomic/ionic basis occupied n:        2
  | Max. number of basis fn. types    :        2
  | Max. radial fns per species/type  :        8
  | Max. logarithmic grid size        :     1301
  | Max. radial integration grid size :       73
  | Max. angular integration grid size:      302
  | Max. angular grid division number :        8
  | Radial grid for Hartree potential :     1301
  | Number of spin channels           :        1

------------------------------------------------------------
          Reading file control.in.
------------------------------------------------------------
  XC: Using RPBE gradient-corrected functionals.
  Spin treatment: No spin polarisation.
  Scalar relativistic treatment of kinetic energy: on-site free-atom approximation to ZORA.
  Charge =   0.000000E+00: Neutral system requested explicitly.
  Using non-empirical van der Waals correction (Hirshfeld partitioning):
  Occupation type: Gaussian broadening, width =   0.100000E-01 eV.
  Using pulay charge density mixing.
  Pulay mixing - number of memorized iterations:   10
  Charge density mixing - mixing parameter:     0.1000
  Convergence accuracy of self-consistent charge density: 0.5000E-04
  Convergence accuracy of sum of eigenvalues: 0.5000E-02
  Convergence accuracy of total energy: 0.5000E-05
  Maximum number of s.-c. iterations  :  3000
  Kohn-Sham eigenvalues and eigenfunctions calculated by lapack diagonalisation (D&C).
  Number of empty states per atom:        8
  Threshold for basis singularities: 0.0000E+00
  Partition function in integrals calculations: rho / r^2
 Using packed matrix format           0
  Convergence accuracy of forces: 0.5000E-03
  Cleaning forces before final output.
  Hirshfeld charge analysis will be performed.
 
  Reading configuration options for species H                   .
  | Found nuclear charge :   1.0000
  | Found cutoff potl. onset [A], width [A], scale factor :    4.00000    2.00000    1.00000
  | Found cutoff specification for free atom: Cutoff potential begins at    8.00000 A.
  | Found logarithmic grid data [bohr] : 0.1000E-03 0.1000E+03 0.1012E+01
  | Threshold for basis-dependent cutoff potential is   0.100000E-03
  | Found data for basic radial integration grid :    24 points, outermost radius =    7.000 A
  | Found multiplier for basic radial grid :   2
  | Found angular grid specification: user-specified.
  | Specified grid contains     4 separate shells.
  | Check grid settings after all constraints further below.
  | Found l_max for Hartree potential  :   4
  | Found free-atom valence shell :  1 s   1.000
  | No ionic wave fns used. Skipping ion_occ.
  | Found hydrogenic basis function :  2 s   2.100
  | Found hydrogenic basis function :  2 p   3.500
  | Found hydrogenic basis function :  1 s   0.850
  | Found hydrogenic basis function :  2 p   3.700
  | Found hydrogenic basis function :  2 s   1.200
  | Found hydrogenic basis function :  3 d   7.000
  Species H                   : Missing cutoff potential type.
  Defaulting to exp(1/x)/(1-x)^2 type cutoff potential.
  Species H : On-site basis accuracy parameter (for Gram-Schmidt orthonormalisation) not specified.
  Using default value basis_acc =  0.1000000E-03.
  Species H                   : Using default innermost maximum threshold i_radial=  2 for radial functions.
  Species H                   : Basic radial grid will be enhanced according to radial_multiplier =   2, to contain    49 grid points.
 
  Reading configuration options for species O                   .
  | Found nuclear charge :   8.0000
  | Found atomic mass :    15.9994000000000      amu
  | Found l_max for Hartree potential  :   4
  | Found cutoff potl. onset [A], width [A], scale factor :    4.00000    2.00000    1.00000
  | Found cutoff specification for free atom: Cutoff potential begins at    8.00000 A.
  | Threshold for basis-dependent cutoff potential is   0.100000E-03
  | Found logarithmic grid data [bohr] : 0.1000E-03 0.1000E+03 0.1012E+01
  | Found data for basic radial integration grid :    36 points, outermost radius =    7.000 A
  | Found multiplier for basic radial grid :   2
  | Found angular grid specification: user-specified.
  | Specified grid contains     4 separate shells.
  | Check grid settings after all constraints further below.
  | Found free-atom valence shell :  2 s   2.000
  | Found free-atom valence shell :  2 p   4.000
  | No ionic wave fns used. Skipping ion_occ.
  | No ionic wave fns used. Skipping ion_occ.
  | Found hydrogenic basis function :  2 p   1.800
  | Found hydrogenic basis function :  3 d   7.600
  | Found hydrogenic basis function :  3 s   6.400
  | Found hydrogenic basis function :  4 f  11.600
  | Found hydrogenic basis function :  3 p   6.200
  | Found hydrogenic basis function :  3 d   5.600
  | Found hydrogenic basis function :  5 g  17.600
  | Found hydrogenic basis function :  1 s   0.750
  Species O                   : Missing cutoff potential type.
  Defaulting to exp(1/x)/(1-x)^2 type cutoff potential.
  Species O : On-site basis accuracy parameter (for Gram-Schmidt orthonormalisation) not specified.
  Using default value basis_acc =  0.1000000E-03.
  Species O                   : Using default innermost maximum threshold i_radial=  2 for radial functions.
  Species O                   : Basic radial grid will be enhanced according to radial_multiplier =   2, to contain    73 grid points.
 
  Finished reading input file 'control.in'. Consistency checks are next.
 
  Target number of points in a grid batch is not set. Defaulting to  100
  Method for grid partitioning is not set. Defaulting to parallel hash+maxmin partitioning.
  Batch size limit is not set. Defaulting to    200
  By default, will store active basis functions for each batch.
  If in need of memory, prune_basis_once .false. can be used to disable this option.
  communication_type for Hartree potential was not specified.
  Defaulting to calc_hartree .
  Pulay mixer: Number of initial linear mixing iterations not set.
  Defaulting to    0 iterations.
  Work space size for distributed Hartree potential not set.
  Defaulting to   0.200000E+03 MB.
  Algorithm-dependent basis array size parameters:
  | n_max_pulay                         :       10
  Geometry relaxation not requested: no relaxation will be performed.
  Handling of forces: Unphysical translation and rotation will be removed from forces.
  No accuracy limit for integral partition fn. given. Defaulting to 0.1000E-14.
  No threshold value for u(r) in integrations given. Defaulting to 0.1000E-05.
  No accuracy for occupation numbers given. Defaulting to 0.1000E-07.
  No threshold value for occupation numbers given. Defaulting to 0.0000E+00.
  No accuracy for fermi level given. Defaulting to 0.1000E-19.
  Maximum # of iterations to find E_F not set. Defaulting to  200.
  Will not use alltoall communication since running on < 1024 CPUs.
  Partitioning for Hartree potential was not defined. Using partition_type for integrals.
  | Reporting present value of keyword multip_moments_threshold  :       0.10000000E-09
  | This value may affect high angular momentum components of the Hartree potential in periodic systems.
  No q(lm)/r^(l+1) cutoff set for long-range Hartree potential.
  | Using default value of  0.100000E-09 .
  | Verify using the multipole_threshold keyword.
  Defaulting to new monopole extrapolation.
  Density update method: Loop over occupied states selected for charge density update.
------------------------------------------------------------


------------------------------------------------------------
          Reading geometry description geometry.in.
------------------------------------------------------------
  Input structure read successfully.
  The structure contains       13 atoms,  and a total of         41.000 electrons.

  Input geometry:
  | No unit cell requested.
  | Atomic structure:
  |       Atom                x [A]            y [A]            z [A]
  |    1: Species O             -4.053030         0.065001        -1.525160
  |    2: Species H             -4.566710         0.974813        -1.912820
  |    3: Species H             -3.067820         0.330172        -1.477310
  |    4: Species H             -4.370360        -0.049164        -0.572274
  |    5: Species O             -4.581760        -0.256435         0.939478
  |    6: Species H             -4.349860         0.471090         1.504340
  |    7: Species H             -5.393870        -0.726611         1.228070
  |    8: Species O             -1.645860         0.870179        -1.502250
  |    9: Species H             -1.568890         1.501730        -0.721051
  |   10: Species H             -0.824432         0.282220        -1.377720
  |   11: Species O             -4.066610         4.258280        -0.900064
  |   12: Species H             -3.224110         3.876870        -0.569443
  |   13: Species H             -3.737450         5.116530        -1.322720
  |

  | The smallest distance between any two atoms is         0.94981015 AA.
  |
  | The first atom of this pair is atom number                      5 .
  | The second atom of this pair is atom number                     6 .

  Structure-dependent array size parameters: 
  | Maximum number of distinct radial functions  :       18
  | Maximum number of basis functions            :      291
  | Number of Kohn-Sham states (occupied + empty):       73
------------------------------------------------------------

------------------------------------------------------------
          Preparing all fixed parts of the calculation.
------------------------------------------------------------
  Determining machine precision:
    2.225073858507201E-308
  Setting up grids for atomic and cluster calculations.

  Creating wave function, potential, and density for free atoms.

  Species: H

  List of occupied orbitals and eigenvalues:
    n    l              occ      energy [Ha]    energy [eV]
    1    0           1.0000        -0.241408        -6.5691


  Species: O

  List of occupied orbitals and eigenvalues:
    n    l              occ      energy [Ha]    energy [eV]
    1    0           2.0000       -18.944147      -515.4965
    2    0           2.0000        -0.883529       -24.0421
    2    1           4.0000        -0.330176        -8.9845

  Creating fixed part of basis set: Ionic, confined, hydrogenic.
 
  H                    hydrogenic:
 
  List of hydrogenic basis orbitals: 
    n    l      effective z      eigenvalue [eV]  inner max. [A]     outer max. [A]     outer radius [A]   
    2    0         2.100000       -14.9965           0.193241           1.317192           5.372934
    2    1         3.500000       -41.6672           0.602363           0.602363           4.056010
    1    0         0.850000        -9.8292           0.624864           0.624864           5.372934
    2    1         3.700000       -46.5653           0.573616           0.573616           3.909951
    2    0         1.200000        -4.5995           0.334977           2.228160           5.505921
    3    2         7.000000       -74.0753           0.680692           0.680692           3.769152
 
 
  O                    hydrogenic:
 
  List of hydrogenic basis orbitals: 
    n    l      effective z      eigenvalue [eV]  inner max. [A]     outer max. [A]     outer radius [A]   
    2    1         1.800000       -11.0118           1.178546           1.178546           5.432516
    3    2         7.600000       -87.3182           0.624117           0.624117           3.541422
    3    0         6.400000       -61.9209           0.061166           1.081887           4.306510
    4    3        11.600000      -114.4238           0.731621           0.731621           3.584982
    3    1         6.200000       -58.1113           0.255677           1.030255           4.306510
    3    2         5.600000       -47.4081           0.847222           0.847222           4.413102
    5    4        17.600000      -168.5799           0.749730           0.749730           3.372413
    1    0         0.750000        -7.6499           0.705275           0.705275           5.366508
 

  Adding cutoff potential to free-atom effective potential.
  Creating atomic-like basis functions for current effective potential.

  Species H                   :

  List of atomic basis orbitals and eigenvalues:
    n    l      energy [Ha]    energy [eV]    outer radius [A]
    1    0        -0.241374        -6.5681       5.372934


  Species O                   :

  List of atomic basis orbitals and eigenvalues:
    n    l      energy [Ha]    energy [eV]    outer radius [A]
    1    0       -18.944147      -515.4965       1.415745
    2    0        -0.883529       -24.0421       5.048305
    2    1        -0.330173        -8.9845       5.301302

  Assembling full basis from fixed parts.
  | Species H :   atomic orbital   1 s accepted.
  | Species H :    hydro orbital   2 s accepted.
  | Species H :    hydro orbital   1 s accepted.
  | Species H :    hydro orbital   2 s accepted.
  | Species H :    hydro orbital   2 p accepted.
  | Species H :    hydro orbital   2 p accepted.
  | Species H :    hydro orbital   3 d accepted.
  | Species O :   atomic orbital   1 s accepted.
  | Species O :    hydro orbital   3 s accepted.
  | Species O :   atomic orbital   2 s accepted.
  | Species O :    hydro orbital   1 s accepted.
  | Species O :    hydro orbital   3 p accepted.
  | Species O :   atomic orbital   2 p accepted.
  | Species O :    hydro orbital   2 p accepted.
  | Species O :    hydro orbital   3 d accepted.
  | Species O :    hydro orbital   3 d accepted.
  | Species O :    hydro orbital   4 f accepted.
  | Species O :    hydro orbital   5 g accepted.
 
  Basis size parameters after reduction:
  | Total number of radial functions:       18
  | Total number of basis functions :      291
 
  Testing on-site integration grid accuracy.
  |  Species  Function  <phi|h_atom|phi> (log., in eV)  <phi|h_atom|phi> (rad., in eV)
           1        1                 -6.5683835025                 -6.5684759159
           1        2                 13.3711789951                 13.3708738703
           1        3                 23.6590910787                 23.6532055418
           1        4                 16.2963827186                 16.1870710655 ***
           1        5                 28.7627214838                 28.7627215090
           1        6                 59.5965249172                 59.5965950857
           1        7                 60.2220506392                 60.2220503827
           2        8               -515.4964576505               -515.4964530710
           2        9                 15.3030791347                 15.3030722972
           2       10                -21.7296094581                -21.7296135470
           2       11                 14.2969371730                 14.2969701621
           2       12                 21.0679693190                 21.0679697493
           2       13                 -2.3833606469                 -2.3833613176
           2       14                 13.7067136422                 13.7066766629
           2       15                 45.8013116808                 45.8013116965
           2       16                 52.2309815402                 52.2309831494
           2       17                 85.4120732416                 85.4120732763
           2       18                142.1019167745                142.1019167817
 * Note: Onsite integrals marked "***" above are less accurate than
 * onsite_accuracy_threshold =    0.03000 eV. Usually, this is harmless.
 * When in doubt, tighten the "radial" and/or "radial_multiplier" flags to check.

  Preparing densities etc. for the partition functions (integrals / Hartree potential).

  Preparations completed.
  max(cpu_time)          :      0.174 s.
  Wall clock time (cpu1) :      0.493 s.
------------------------------------------------------------

------------------------------------------------------------
          Begin self-consistency loop: Initialization.

          Date     :  20150727, Time     :  122303.811
------------------------------------------------------------

  Initializing index lists of integration centers etc. from given atomic structure:
  | Number of centers in hartree potential         :        13
  | Number of centers in hartree multipole         :        13
  | Number of centers in electron density summation:        13
  | Number of centers in basis integrals           :        13
  | Number of centers in integrals                 :        13
  Partitioning the integration grid into batches with parallel hashing+maxmin method.
  | Number of batches:     1850
  | Maximal batch size:     158
  | Minimal batch size:      50
  | Average batch size:      91.331
  | Standard deviation of batch sizes:      28.311

  Integration load balanced across     8 MPI tasks.
  Work distribution over tasks is as follows:
  Task     0 has      21078 integration points.
  Task     1 has      21044 integration points.
  Task     2 has      21080 integration points.
  Task     3 has      21182 integration points.
  Task     4 has      21093 integration points.
  Task     5 has      21157 integration points.
  Task     6 has      21164 integration points.
  Task     7 has      21164 integration points.
  Initializing partition tables, free-atom densities, potentials, etc. across the integration grid (initialize_grid_storage).
  | Net number of integration points:   168962
  | of which are non-zero points    :   168414
  Obtaining max. number of non-zero basis functions in each batch (get_n_compute_maxes).
  | Maximal number of non-zero basis functions:      289 in task     0
  | Maximal number of non-zero basis functions:      289 in task     1
  | Maximal number of non-zero basis functions:      289 in task     2
  | Maximal number of non-zero basis functions:      288 in task     3
  | Maximal number of non-zero basis functions:      289 in task     4
  | Maximal number of non-zero basis functions:      289 in task     5
  | Maximal number of non-zero basis functions:      288 in task     6
  | Maximal number of non-zero basis functions:      289 in task     7
  Integrating Hamiltonian matrix: batch-based integration.
  Time summed over all CPUs for integration: real work        5.062 s, elapsed        5.151 s
  Integrating overlap matrix.
  Time summed over all CPUs for integration: real work        2.681 s, elapsed        2.717 s

  Updating Kohn-Sham eigenvalues, eigenvectors, occupation numbers, and Fermi level.
  Solving generalized eigenproblem
  Updating Kohn-Sham eigenvalues and eigenfunctions.
  Transforming overlap matrix and checking for singularities.
  Overlap matrix is nonsingular:
  | Lowest eigenvalue:  0.227192E-03
  Solving real generalised eigenvalue problem by standard LAPACK (fast)
  Determining occupation numbers for Kohn-Sham eigenstates.
  | Chemical potential (Fermi level) in eV                 : -.28779000E+01
  | Error in electron count due to remaining E_F inaccuracy: -.21316282E-11
  | Maximum occupation number of highest empty state:  0.00E+00

  Writing Kohn-Sham eigenvalues.

  State    Occupation    Eigenvalue [Ha]    Eigenvalue [eV]
      1       2.00000         -19.065171         -518.78970
      2       2.00000         -19.059132         -518.62538
      3       2.00000         -19.042487         -518.17244
      4       2.00000         -19.040007         -518.10496
      5       2.00000          -1.127220          -30.67320
      6       2.00000          -1.104481          -30.05446
      7       2.00000          -1.083015          -29.47034
      8       2.00000          -1.081665          -29.43361
      9       2.00000          -0.651815          -17.73679
     10       2.00000          -0.647385          -17.61624
     11       2.00000          -0.610502          -16.61261
     12       2.00000          -0.603613          -16.42516
     13       2.00000          -0.601360          -16.36385
     14       2.00000          -0.524365          -14.26869
     15       2.00000          -0.504807          -13.73650
     16       2.00000          -0.504689          -13.73328
     17       2.00000          -0.483556          -13.15821
     18       2.00000          -0.446138          -12.14002
     19       2.00000          -0.435922          -11.86204
     20       2.00000          -0.426841          -11.61494
     21       1.00000          -0.105761           -2.87790
     22       0.00000          -0.070874           -1.92858
     23       0.00000          -0.063041           -1.71542
     24       0.00000          -0.059388           -1.61603
     25       0.00000          -0.022250           -0.60545
     26       0.00000          -0.000669           -0.01821
     27       0.00000           0.026427            0.71913
     28       0.00000           0.035285            0.96016
     29       0.00000           0.053328            1.45114
     30       0.00000           0.062668            1.70529
     31       0.00000           0.078276            2.12999
     32       0.00000           0.088050            2.39596
     33       0.00000           0.093910            2.55541
     34       0.00000           0.101474            2.76126
     35       0.00000           0.110067            2.99508
     36       0.00000           0.115191            3.13452
     37       0.00000           0.119978            3.26475
     38       0.00000           0.130064            3.53921
     39       0.00000           0.145702            3.96476
     40       0.00000           0.154979            4.21718
     41       0.00000           0.164226            4.46882
     42       0.00000           0.173193            4.71282
     43       0.00000           0.185729            5.05395
     44       0.00000           0.215513            5.86442
     45       0.00000           0.227003            6.17707
     46       0.00000           0.248749            6.76882
     47       0.00000           0.257724            7.01302
     48       0.00000           0.276175            7.51511
     49       0.00000           0.293983            7.99969
     50       0.00000           0.303237            8.25149
     51       0.00000           0.344189            9.36586
     52       0.00000           0.358667            9.75983
     53       0.00000           0.359341            9.77816
     54       0.00000           0.371704           10.11458
     55       0.00000           0.386441           10.51558
     56       0.00000           0.388423           10.56954
     57       0.00000           0.405059           11.02222
     58       0.00000           0.411946           11.20963
     59       0.00000           0.430248           11.70765
     60       0.00000           0.440961           11.99915
     61       0.00000           0.447297           12.17156
     62       0.00000           0.468804           12.75680
     63       0.00000           0.500636           13.62301
     64       0.00000           0.508661           13.84136
     65       0.00000           0.519211           14.12846
     66       0.00000           0.539114           14.67005
     67       0.00000           0.574615           15.63606
     68       0.00000           0.606035           16.49104
     69       0.00000           0.635083           17.28148
     70       0.00000           0.676167           18.39944
     71       0.00000           0.708296           19.27372
     72       0.00000           0.727853           19.80588
     73       0.00000           0.754575           20.53304

  Highest occupied state (VBM) at    -11.61493644 eV
  | Occupation number:      2.00000000

  Lowest unoccupied state (CBM) at    -2.87790002 eV
  | Occupation number:      1.00000000

  Overall HOMO-LUMO gap:      8.73703642 eV.
  Calculating total energy contributions from superposition of free atom densities.

  Total energy components:
  | Sum of eigenvalues            :        -174.19410243 Ha       -4740.06269883 eV
  | XC energy correction          :         -36.80788539 Ha       -1001.59352186 eV
  | XC potential correction       :          47.04138732 Ha        1280.06127776 eV
  | Free-atom electrostatic energy:        -142.95414857 Ha       -3889.98030262 eV
  | Hartree energy correction     :           0.00000000 Ha           0.00000000 eV
  | van der Waals energy corr.    :           0.00000000 Ha           0.00000000 eV
  | Entropy correction            :          -0.00010367 Ha          -0.00282095 eV
  | ---------------------------
  | Total energy                  :        -306.91474907 Ha       -8351.57524555 eV
  | Total energy, T -> 0          :        -306.91485273 Ha       -8351.57806650 eV  <-- do not rely on this value for anything but (periodic) metals
  | Electronic free energy        :        -306.91495640 Ha       -8351.58088744 eV

  Derived energy quantities:
  | Kinetic energy                :         304.00542288 Ha        8272.40845196 eV
  | Electrostatic energy          :        -574.11228656 Ha      -15622.39017565 eV
  | Energy correction for multipole
  | error in Hartree potential    :           0.00000000 Ha           0.00000000 eV
  | Sum of eigenvalues per atom                           :        -364.62020760 eV
  | Total energy (T->0) per atom                          :        -642.42908204 eV  <-- do not rely on this value for anything but (periodic) metals
  | Electronic free energy per atom                       :        -642.42929903 eV
  Initialize hartree_potential_storage
  Max. number of atoms included in rho_multipole:           13

  End scf initialization - timings             :  max(cpu_time)    wall_clock(cpu1)
  | Time for scf. initialization               :        1.423 s           1.422 s
  | Boundary condition initialization          :        0.000 s           0.000 s
  | Integration                                :        0.987 s           0.987 s
  | Solution of K.-S. eqns.                    :        0.135 s           0.136 s
  | Grid partitioning                          :        0.130 s           0.130 s
  | Preloading free-atom quantities on grid    :        0.014 s           0.013 s
  | Free-atom superposition energy             :        0.052 s           0.052 s
  | Total energy evaluation                    :        0.000 s           0.001 s
------------------------------------------------------------

------------------------------------------------------------
          Begin self-consistency iteration #    1

  Date     :  20150727, Time     :  122305.234
------------------------------------------------------------
  Evaluating new KS density.
  Integration grid: deviation in total charge (<rho> - N_e) =  -2.138734E-12
  Pulay mixing of updated and previous charge densities.

  Evaluating partitioned Hartree potential by multipole expansion.
  | Analytical far-field extrapolation by fixed multipoles:
  | Hartree multipole sum: apparent total charge =  -0.118633E-05
  Summing up the Hartree potential.
  Time summed over all CPUs for potential: real work        1.921 s, elapsed        1.931 s
  | RMS charge density error from multipole expansion :   0.147120E-02

  Integrating Hamiltonian matrix: batch-based integration.
  Time summed over all CPUs for integration: real work        5.049 s, elapsed        5.143 s

  Updating Kohn-Sham eigenvalues, eigenvectors, occupation numbers, and Fermi level.
  Solving generalized eigenproblem
  Updating Kohn-Sham eigenvalues and eigenfunctions.
  Solving real generalised eigenvalue problem by standard LAPACK (fast)
  Determining occupation numbers for Kohn-Sham eigenstates.
  | Chemical potential (Fermi level) in eV                 : -.26675868E+01
  | Error in electron count due to remaining E_F inaccuracy: 0.42632564E-13
  | Maximum occupation number of highest empty state:  0.00E+00

  Writing Kohn-Sham eigenvalues.

  State    Occupation    Eigenvalue [Ha]    Eigenvalue [eV]
      1       2.00000         -19.007304         -517.21505
      2       2.00000         -18.990210         -516.74992
      3       2.00000         -18.974713         -516.32820
      4       2.00000         -18.959031         -515.90148
      5       2.00000          -1.098428          -29.88974
      6       2.00000          -1.072848          -29.19367
      7       2.00000          -1.048946          -28.54328
      8       2.00000          -1.041437          -28.33894
      9       2.00000          -0.625304          -17.01539
     10       2.00000          -0.621532          -16.91276
     11       2.00000          -0.585934          -15.94407
     12       2.00000          -0.574535          -15.63389
     13       2.00000          -0.567233          -15.43518
     14       2.00000          -0.494247          -13.44914
     15       2.00000          -0.472369          -12.85383
     16       2.00000          -0.463565          -12.61424
     17       2.00000          -0.453124          -12.33012
     18       2.00000          -0.412699          -11.23011
     19       2.00000          -0.401594          -10.92792
     20       2.00000          -0.383447          -10.43412
     21       1.00000          -0.098032           -2.66759
     22       0.00000          -0.063504           -1.72805
     23       0.00000          -0.056313           -1.53236
     24       0.00000          -0.051685           -1.40643
     25       0.00000          -0.015076           -0.41025
     26       0.00000           0.004383            0.11927
     27       0.00000           0.035510            0.96627
     28       0.00000           0.041960            1.14178
     29       0.00000           0.057674            1.56940
     30       0.00000           0.067781            1.84441
     31       0.00000           0.084962            2.31194
     32       0.00000           0.095657            2.60295
     33       0.00000           0.101843            2.77130
     34       0.00000           0.107904            2.93623
     35       0.00000           0.116693            3.17539
     36       0.00000           0.121614            3.30928
     37       0.00000           0.129896            3.53465
     38       0.00000           0.138646            3.77275
     39       0.00000           0.160904            4.37842
     40       0.00000           0.165248            4.49662
     41       0.00000           0.170970            4.65233
     42       0.00000           0.179336            4.87998
     43       0.00000           0.194301            5.28719
     44       0.00000           0.222291            6.04886
     45       0.00000           0.233489            6.35355
     46       0.00000           0.255329            6.94786
     47       0.00000           0.265566            7.22643
     48       0.00000           0.282705            7.69278
     49       0.00000           0.298811            8.13106
     50       0.00000           0.309937            8.43382
     51       0.00000           0.352110            9.58139
     52       0.00000           0.365653            9.94992
     53       0.00000           0.366181            9.96430
     54       0.00000           0.378440           10.29788
     55       0.00000           0.393508           10.70790
     56       0.00000           0.396246           10.78239
     57       0.00000           0.413012           11.23863
     58       0.00000           0.421880           11.47994
     59       0.00000           0.437325           11.90022
     60       0.00000           0.448220           12.19669
     61       0.00000           0.453951           12.35264
     62       0.00000           0.476656           12.97048
     63       0.00000           0.511442           13.91705
     64       0.00000           0.516873           14.06483
     65       0.00000           0.529180           14.39971
     66       0.00000           0.547524           14.89888
     67       0.00000           0.584046           15.89270
     68       0.00000           0.614427           16.71941
     69       0.00000           0.645147           17.55533
     70       0.00000           0.685112           18.64283
     71       0.00000           0.718679           19.55626
     72       0.00000           0.738430           20.09371
     73       0.00000           0.763517           20.77635

  Highest occupied state (VBM) at     -2.66758682 eV
  | Occupation number:      1.00000000

  Lowest unoccupied state (CBM) at    -1.72804500 eV
  | Occupation number:      0.00000000

  Overall HOMO-LUMO gap:      0.93954181 eV.

  Total energy components:
  | Sum of eigenvalues            :        -172.59502953 Ha       -4696.54971142 eV
  | XC energy correction          :         -36.98157471 Ha       -1006.31984876 eV
  | XC potential correction       :          47.26842499 Ha        1286.23928712 eV
  | Free-atom electrostatic energy:        -142.95414857 Ha       -3889.98030262 eV
  | Hartree energy correction     :          -1.55766421 Ha         -42.38619966 eV
  | van der Waals energy corr.    :           0.00000000 Ha           0.00000000 eV
  | Entropy correction            :          -0.00010367 Ha          -0.00282095 eV
  | ---------------------------
  | Total energy                  :        -306.81999203 Ha       -8348.99677534 eV
  | Total energy, T -> 0          :        -306.82009570 Ha       -8348.99959629 eV  <-- do not rely on this value for anything but (periodic) metals
  | Electronic free energy        :        -306.82019936 Ha       -8349.00241724 eV

  Derived energy quantities:
  | Kinetic energy                :         305.06404991 Ha        8301.21515913 eV
  | Electrostatic energy          :        -574.90246723 Ha      -15643.89208572 eV
  | Energy correction for multipole
  | error in Hartree potential    :           0.00025191 Ha           0.00685495 eV
  | Sum of eigenvalues per atom                           :        -361.27305472 eV
  | Total energy (T->0) per atom                          :        -642.23073818 eV  <-- do not rely on this value for anything but (periodic) metals
  | Electronic free energy per atom                       :        -642.23095517 eV

  Self-consistency convergence accuracy:
  | Change of charge density      : 0.5612E+00
  | Change of sum of eigenvalues  : 0.4351E+02 eV
  | Change of total energy        : 0.2578E+01 eV

  End self-consistency iteration #     1       :  max(cpu_time)    wall_clock(cpu1)
  | Time for this iteration                    :        1.382 s           1.381 s
  | Charge density update                      :        0.448 s           0.447 s
  | Density mixing                             :        0.003 s           0.002 s
  | Hartree multipole update                   :        0.005 s           0.005 s
  | Hartree multipole summation                :        0.242 s           0.242 s
  | Integration                                :        0.645 s           0.644 s
  | Solution of K.-S. eqns.                    :        0.035 s           0.035 s
  | Total energy evaluation                    :        0.000 s           0.001 s
------------------------------------------------------------

------------------------------------------------------------
          Begin self-consistency iteration #    2

  Date     :  20150727, Time     :  122306.616
------------------------------------------------------------
  Evaluating new KS density.
  Integration grid: deviation in total charge (<rho> - N_e) =   2.842171E-14
  Pulay mixing of updated and previous charge densities.

  Evaluating partitioned Hartree potential by multipole expansion.
  | Analytical far-field extrapolation by fixed multipoles:
  | Hartree multipole sum: apparent total charge =  -0.385172E-05
  Summing up the Hartree potential.
  Time summed over all CPUs for potential: real work        1.920 s, elapsed        1.931 s
  | RMS charge density error from multipole expansion :   0.591627E-02

  Integrating Hamiltonian matrix: batch-based integration.
  Time summed over all CPUs for integration: real work        5.033 s, elapsed        5.130 s

  Updating Kohn-Sham eigenvalues, eigenvectors, occupation numbers, and Fermi level.
  Solving generalized eigenproblem
  Updating Kohn-Sham eigenvalues and eigenfunctions.
  Solving real generalised eigenvalue problem by standard LAPACK (fast)
  Determining occupation numbers for Kohn-Sham eigenstates.
  | Chemical potential (Fermi level) in eV                 : -.21858457E+01
  | Error in electron count due to remaining E_F inaccuracy: 0.42632564E-13
  | Maximum occupation number of highest empty state:  0.00E+00

  Highest occupied state (VBM) at     -2.18584566 eV
  | Occupation number:      1.00000000

  Lowest unoccupied state (CBM) at    -1.30590866 eV
  | Occupation number:      0.00000000

  Overall HOMO-LUMO gap:      0.87993700 eV.

  Total energy components:
  | Sum of eigenvalues            :        -168.84493279 Ha       -4594.50438694 eV
  | XC energy correction          :         -37.41061088 Ha       -1017.99451706 eV
  | XC potential correction       :          47.82799582 Ha        1301.46598402 eV
  | Free-atom electrostatic energy:        -142.95414857 Ha       -3889.98030262 eV
  | Hartree energy correction     :          -5.33322403 Ha        -145.12440974 eV
  | van der Waals energy corr.    :           0.00000000 Ha           0.00000000 eV
  | Entropy correction            :          -0.00010367 Ha          -0.00282095 eV
  | ---------------------------
  | Total energy                  :        -306.71492045 Ha       -8346.13763234 eV
  | Total energy, T -> 0          :        -306.71502412 Ha       -8346.14045329 eV  <-- do not rely on this value for anything but (periodic) metals
  | Electronic free energy        :        -306.71512779 Ha       -8346.14327424 eV

  Derived energy quantities:
  | Kinetic energy                :         307.22712480 Ha        8360.07542172 eV
  | Electrostatic energy          :        -576.53143437 Ha      -15688.21853699 eV
  | Energy correction for multipole
  | error in Hartree potential    :           0.00027608 Ha           0.00751264 eV
  | Sum of eigenvalues per atom                           :        -353.42341438 eV
  | Total energy (T->0) per atom                          :        -642.01080410 eV  <-- do not rely on this value for anything but (periodic) metals
  | Electronic free energy per atom                       :        -642.01102110 eV

  Self-consistency convergence accuracy:
  | Change of charge density      : 0.4259E+00
  | Change of sum of eigenvalues  : 0.1020E+03 eV
  | Change of total energy        : 0.2859E+01 eV

  End self-consistency iteration #     2       :  max(cpu_time)    wall_clock(cpu1)
  | Time for this iteration                    :        1.378 s           1.378 s
  | Charge density update                      :        0.447 s           0.447 s
  | Density mixing                             :        0.004 s           0.004 s
  | Hartree multipole update                   :        0.005 s           0.005 s
  | Hartree multipole summation                :        0.242 s           0.242 s
  | Integration                                :        0.643 s           0.643 s
  | Solution of K.-S. eqns.                    :        0.035 s           0.035 s
  | Total energy evaluation                    :        0.000 s           0.000 s
------------------------------------------------------------

------------------------------------------------------------
          Begin self-consistency iteration #    3

  Date     :  20150727, Time     :  122307.994
------------------------------------------------------------
  Evaluating new KS density.
  Integration grid: deviation in total charge (<rho> - N_e) =   5.684342E-14
  Pulay mixing of updated and previous charge densities.

  Evaluating partitioned Hartree potential by multipole expansion.
  | Analytical far-field extrapolation by fixed multipoles:
  | Hartree multipole sum: apparent total charge =  -0.450464E-05
  Summing up the Hartree potential.
  Time summed over all CPUs for potential: real work        1.921 s, elapsed        1.931 s
  | RMS charge density error from multipole expansion :   0.123662E-01

  Integrating Hamiltonian matrix: batch-based integration.
  Time summed over all CPUs for integration: real work        5.034 s, elapsed        5.121 s

  Updating Kohn-Sham eigenvalues, eigenvectors, occupation numbers, and Fermi level.
  Solving generalized eigenproblem
  Updating Kohn-Sham eigenvalues and eigenfunctions.
  Solving real generalised eigenvalue problem by standard LAPACK (fast)
  Determining occupation numbers for Kohn-Sham eigenstates.
  | Chemical potential (Fermi level) in eV                 : -.22051606E+01
  | Error in electron count due to remaining E_F inaccuracy: -.93791641E-12
  | Maximum occupation number of highest empty state:  0.00E+00

  Highest occupied state (VBM) at     -7.53458639 eV
  | Occupation number:      2.00000000

  Lowest unoccupied state (CBM) at    -2.20516060 eV
  | Occupation number:      1.00000000

  Overall HOMO-LUMO gap:      5.32942579 eV.

  Total energy components:
  | Sum of eigenvalues            :        -169.23522733 Ha       -4605.12484184 eV
  | XC energy correction          :         -37.39414485 Ha       -1017.54645357 eV
  | XC potential correction       :          47.79916837 Ha        1300.68154921 eV
  | Free-atom electrostatic energy:        -142.95414857 Ha       -3889.98030262 eV
  | Hartree energy correction     :          -4.92991592 Ha        -134.14983767 eV
  | van der Waals energy corr.    :           0.00000000 Ha           0.00000000 eV
  | Entropy correction            :          -0.00010367 Ha          -0.00282095 eV
  | ---------------------------
  | Total energy                  :        -306.71426831 Ha       -8346.11988649 eV
  | Total energy, T -> 0          :        -306.71437197 Ha       -8346.12270744 eV  <-- do not rely on this value for anything but (periodic) metals
  | Electronic free energy        :        -306.71447564 Ha       -8346.12552838 eV

  Derived energy quantities:
  | Kinetic energy                :         305.74049902 Ha        8319.62227605 eV
  | Electrostatic energy          :        -575.06062247 Ha      -15648.19570896 eV
  | Energy correction for multipole
  | error in Hartree potential    :          -0.00326830 Ha          -0.08893500 eV
  | Sum of eigenvalues per atom                           :        -354.24037245 eV
  | Total energy (T->0) per atom                          :        -642.00943903 eV  <-- do not rely on this value for anything but (periodic) metals
  | Electronic free energy per atom                       :        -642.00965603 eV

  Self-consistency convergence accuracy:
  | Change of charge density      : 0.2121E+00
  | Change of sum of eigenvalues  : -.1062E+02 eV
  | Change of total energy        : 0.1775E-01 eV

  End self-consistency iteration #     3       :  max(cpu_time)    wall_clock(cpu1)
  | Time for this iteration                    :        1.374 s           1.374 s
  | Charge density update                      :        0.443 s           0.443 s
  | Density mixing                             :        0.006 s           0.006 s
  | Hartree multipole update                   :        0.005 s           0.004 s
  | Hartree multipole summation                :        0.242 s           0.242 s
  | Integration                                :        0.641 s           0.641 s
  | Solution of K.-S. eqns.                    :        0.036 s           0.036 s
  | Total energy evaluation                    :        0.000 s           0.001 s
------------------------------------------------------------

------------------------------------------------------------
          Begin self-consistency iteration #    4

  Date     :  20150727, Time     :  122309.369
------------------------------------------------------------
  Evaluating new KS density.
  Integration grid: deviation in total charge (<rho> - N_e) =  -9.379164E-13
  Pulay mixing of updated and previous charge densities.

  Evaluating partitioned Hartree potential by multipole expansion.
  | Analytical far-field extrapolation by fixed multipoles:
  | Hartree multipole sum: apparent total charge =  -0.554125E-05
  Summing up the Hartree potential.
  Time summed over all CPUs for potential: real work        1.920 s, elapsed        1.931 s
  | RMS charge density error from multipole expansion :   0.153146E-01

  Integrating Hamiltonian matrix: batch-based integration.
  Time summed over all CPUs for integration: real work        5.022 s, elapsed        5.123 s

  Updating Kohn-Sham eigenvalues, eigenvectors, occupation numbers, and Fermi level.
  Solving generalized eigenproblem
  Updating Kohn-Sham eigenvalues and eigenfunctions.
  Solving real generalised eigenvalue problem by standard LAPACK (fast)
  Determining occupation numbers for Kohn-Sham eigenstates.
  | Chemical potential (Fermi level) in eV                 : -.20875995E+01
  | Error in electron count due to remaining E_F inaccuracy: -.83488771E-09
  | Maximum occupation number of highest empty state:  0.00E+00

  Highest occupied state (VBM) at     -6.76638945 eV
  | Occupation number:      2.00000000

  Lowest unoccupied state (CBM) at    -2.08759953 eV
  | Occupation number:      1.00000000

  Overall HOMO-LUMO gap:      4.67878992 eV.

  Total energy components:
  | Sum of eigenvalues            :        -168.34714370 Ha       -4580.95885663 eV
  | XC energy correction          :         -37.51505166 Ha       -1020.83649537 eV
  | XC potential correction       :          47.95495019 Ha        1304.92058843 eV
  | Free-atom electrostatic energy:        -142.95414857 Ha       -3889.98030262 eV
  | Hartree energy correction     :          -5.84784896 Ha        -159.12806663 eV
  | van der Waals energy corr.    :           0.00000000 Ha           0.00000000 eV
  | Entropy correction            :          -0.00010367 Ha          -0.00282095 eV
  | ---------------------------
  | Total energy                  :        -306.70924270 Ha       -8345.98313283 eV
  | Total energy, T -> 0          :        -306.70934637 Ha       -8345.98595378 eV  <-- do not rely on this value for anything but (periodic) metals
  | Electronic free energy        :        -306.70945004 Ha       -8345.98877473 eV

  Derived energy quantities:
  | Kinetic energy                :         305.88863124 Ha        8323.65315880 eV
  | Electrostatic energy          :        -575.08282227 Ha      -15648.79979626 eV
  | Energy correction for multipole
  | error in Hartree potential    :          -0.00428907 Ha          -0.11671151 eV
  | Sum of eigenvalues per atom                           :        -352.38145051 eV
  | Total energy (T->0) per atom                          :        -641.99891952 eV  <-- do not rely on this value for anything but (periodic) metals
  | Electronic free energy per atom                       :        -641.99913652 eV

  Self-consistency convergence accuracy:
  | Change of charge density      : 0.9990E-01
  | Change of sum of eigenvalues  : 0.2417E+02 eV
  | Change of total energy        : 0.1368E+00 eV

  End self-consistency iteration #     4       :  max(cpu_time)    wall_clock(cpu1)
  | Time for this iteration                    :        1.374 s           1.373 s
  | Charge density update                      :        0.441 s           0.441 s
  | Density mixing                             :        0.006 s           0.007 s
  | Hartree multipole update                   :        0.005 s           0.005 s
  | Hartree multipole summation                :        0.242 s           0.242 s
  | Integration                                :        0.642 s           0.641 s
  | Solution of K.-S. eqns.                    :        0.035 s           0.036 s
  | Total energy evaluation                    :        0.000 s           0.001 s
------------------------------------------------------------

------------------------------------------------------------
          Begin self-consistency iteration #    5

  Date     :  20150727, Time     :  122310.743
------------------------------------------------------------
  Evaluating new KS density.
  Integration grid: deviation in total charge (<rho> - N_e) =  -8.348948E-10
  Pulay mixing of updated and previous charge densities.

  Evaluating partitioned Hartree potential by multipole expansion.
  | Analytical far-field extrapolation by fixed multipoles:
  | Hartree multipole sum: apparent total charge =  -0.566758E-05
  Summing up the Hartree potential.
  Time summed over all CPUs for potential: real work        1.919 s, elapsed        1.930 s
  | RMS charge density error from multipole expansion :   0.156256E-01

  Integrating Hamiltonian matrix: batch-based integration.
  Time summed over all CPUs for integration: real work        5.019 s, elapsed        5.123 s

  Updating Kohn-Sham eigenvalues, eigenvectors, occupation numbers, and Fermi level.
  Solving generalized eigenproblem
  Updating Kohn-Sham eigenvalues and eigenfunctions.
  Solving real generalised eigenvalue problem by standard LAPACK (fast)
  Determining occupation numbers for Kohn-Sham eigenstates.
  | Chemical potential (Fermi level) in eV                 : -.20780367E+01
  | Error in electron count due to remaining E_F inaccuracy: 0.00000000E+00
  | Maximum occupation number of highest empty state:  0.00E+00

  Highest occupied state (VBM) at     -2.07803673 eV
  | Occupation number:      1.00000000

  Lowest unoccupied state (CBM) at    -2.07803673 eV
  | Occupation number:      1.00000000

  Overall HOMO-LUMO gap:      0.00000000 eV.

  Total energy components:
  | Sum of eigenvalues            :        -168.32421979 Ha       -4580.33506548 eV
  | XC energy correction          :         -37.51818810 Ha       -1020.92184212 eV
  | XC potential correction       :          47.95865724 Ha        1305.02146226 eV
  | Free-atom electrostatic energy:        -142.95414857 Ha       -3889.98030262 eV
  | Hartree energy correction     :          -5.87109617 Ha        -159.76065534 eV
  | van der Waals energy corr.    :           0.00000000 Ha           0.00000000 eV
  | Entropy correction            :          -0.00010367 Ha          -0.00282095 eV
  | ---------------------------
  | Total energy                  :        -306.70899540 Ha       -8345.97640330 eV
  | Total energy, T -> 0          :        -306.70909906 Ha       -8345.97922425 eV  <-- do not rely on this value for anything but (periodic) metals
  | Electronic free energy        :        -306.70920273 Ha       -8345.98204520 eV

  Derived energy quantities:
  | Kinetic energy                :         305.88999053 Ha        8323.69014698 eV
  | Electrostatic energy          :        -575.08079782 Ha      -15648.74470817 eV
  | Energy correction for multipole
  | error in Hartree potential    :          -0.00449720 Ha          -0.12237505 eV
  | Sum of eigenvalues per atom                           :        -352.33346658 eV
  | Total energy (T->0) per atom                          :        -641.99840187 eV  <-- do not rely on this value for anything but (periodic) metals
  | Electronic free energy per atom                       :        -641.99861886 eV

  Self-consistency convergence accuracy:
  | Change of charge density      : 0.2236E-01
  | Change of sum of eigenvalues  : 0.6238E+00 eV
  | Change of total energy        : 0.6730E-02 eV

  End self-consistency iteration #     5       :  max(cpu_time)    wall_clock(cpu1)
  | Time for this iteration                    :        1.377 s           1.376 s
  | Charge density update                      :        0.443 s           0.443 s
  | Density mixing                             :        0.008 s           0.008 s
  | Hartree multipole update                   :        0.004 s           0.005 s
  | Hartree multipole summation                :        0.242 s           0.242 s
  | Integration                                :        0.642 s           0.641 s
  | Solution of K.-S. eqns.                    :        0.036 s           0.036 s
  | Total energy evaluation                    :        0.000 s           0.001 s
------------------------------------------------------------

------------------------------------------------------------
          Begin self-consistency iteration #    6

  Date     :  20150727, Time     :  122312.120
------------------------------------------------------------
  Evaluating new KS density.
  Integration grid: deviation in total charge (<rho> - N_e) =   7.105427E-15
  Pulay mixing of updated and previous charge densities.

  Evaluating partitioned Hartree potential by multipole expansion.
  | Analytical far-field extrapolation by fixed multipoles:
  | Hartree multipole sum: apparent total charge =  -0.570210E-05
  Summing up the Hartree potential.
  Time summed over all CPUs for potential: real work        1.920 s, elapsed        1.930 s
  | RMS charge density error from multipole expansion :   0.159510E-01

  Integrating Hamiltonian matrix: batch-based integration.
  Time summed over all CPUs for integration: real work        5.022 s, elapsed        5.124 s

  Updating Kohn-Sham eigenvalues, eigenvectors, occupation numbers, and Fermi level.
  Solving generalized eigenproblem
  Updating Kohn-Sham eigenvalues and eigenfunctions.
  Solving real generalised eigenvalue problem by standard LAPACK (fast)
  Determining occupation numbers for Kohn-Sham eigenstates.
  | Chemical potential (Fermi level) in eV                 : -.20755531E+01
  | Error in electron count due to remaining E_F inaccuracy: -.10482637E-09
  | Maximum occupation number of highest empty state:  0.00E+00

  Highest occupied state (VBM) at     -6.68371218 eV
  | Occupation number:      2.00000000

  Lowest unoccupied state (CBM) at    -2.07555313 eV
  | Occupation number:      1.00000000

  Overall HOMO-LUMO gap:      4.60815905 eV.

  Total energy components:
  | Sum of eigenvalues            :        -168.29264668 Ha       -4579.47591744 eV
  | XC energy correction          :         -37.52371558 Ha       -1021.07225249 eV
  | XC potential correction       :          47.96551951 Ha        1305.20819402 eV
  | Free-atom electrostatic energy:        -142.95414857 Ha       -3889.98030262 eV
  | Hartree energy correction     :          -5.90403685 Ha        -160.65701679 eV
  | van der Waals energy corr.    :           0.00000000 Ha           0.00000000 eV
  | Entropy correction            :          -0.00010367 Ha          -0.00282095 eV
  | ---------------------------
  | Total energy                  :        -306.70902818 Ha       -8345.97729533 eV
  | Total energy, T -> 0          :        -306.70913184 Ha       -8345.98011627 eV  <-- do not rely on this value for anything but (periodic) metals
  | Electronic free energy        :        -306.70923551 Ha       -8345.98293722 eV

  Derived energy quantities:
  | Kinetic energy                :         305.88917127 Ha        8323.66785374 eV
  | Electrostatic energy          :        -575.07448386 Ha      -15648.57289658 eV
  | Energy correction for multipole
  | error in Hartree potential    :          -0.00468614 Ha          -0.12751641 eV
  | Sum of eigenvalues per atom                           :        -352.26737826 eV
  | Total energy (T->0) per atom                          :        -641.99847048 eV  <-- do not rely on this value for anything but (periodic) metals
  | Electronic free energy per atom                       :        -641.99868748 eV

  Self-consistency convergence accuracy:
  | Change of charge density      : 0.9169E-02
  | Change of sum of eigenvalues  : 0.8591E+00 eV
  | Change of total energy        : -.8920E-03 eV

  End self-consistency iteration #     6       :  max(cpu_time)    wall_clock(cpu1)
  | Time for this iteration                    :        1.377 s           1.377 s
  | Charge density update                      :        0.443 s           0.442 s
  | Density mixing                             :        0.009 s           0.009 s
  | Hartree multipole update                   :        0.004 s           0.005 s
  | Hartree multipole summation                :        0.242 s           0.242 s
  | Integration                                :        0.641 s           0.641 s
  | Solution of K.-S. eqns.                    :        0.035 s           0.036 s
  | Total energy evaluation                    :        0.000 s           0.001 s
------------------------------------------------------------

------------------------------------------------------------
          Begin self-consistency iteration #    7

  Date     :  20150727, Time     :  122313.497
------------------------------------------------------------
  Evaluating new KS density.
  Integration grid: deviation in total charge (<rho> - N_e) =  -1.048264E-10
  Pulay mixing of updated and previous charge densities.

  Evaluating partitioned Hartree potential by multipole expansion.
  | Analytical far-field extrapolation by fixed multipoles:
  | Hartree multipole sum: apparent total charge =  -0.566678E-05
  Summing up the Hartree potential.
  Time summed over all CPUs for potential: real work        1.920 s, elapsed        1.930 s
  | RMS charge density error from multipole expansion :   0.159764E-01

  Integrating Hamiltonian matrix: batch-based integration.
  Time summed over all CPUs for integration: real work        5.026 s, elapsed        5.120 s

  Updating Kohn-Sham eigenvalues, eigenvectors, occupation numbers, and Fermi level.
  Solving generalized eigenproblem
  Updating Kohn-Sham eigenvalues and eigenfunctions.
  Solving real generalised eigenvalue problem by standard LAPACK (fast)
  Determining occupation numbers for Kohn-Sham eigenstates.
  | Chemical potential (Fermi level) in eV                 : -.20842993E+01
  | Error in electron count due to remaining E_F inaccuracy: -.16593731E-08
  | Maximum occupation number of highest empty state:  0.00E+00

  Highest occupied state (VBM) at     -6.72411006 eV
  | Occupation number:      2.00000000

  Lowest unoccupied state (CBM) at    -2.08429935 eV
  | Occupation number:      1.00000000

  Overall HOMO-LUMO gap:      4.63981072 eV.

  Total energy components:
  | Sum of eigenvalues            :        -168.31972152 Ha       -4580.21266120 eV
  | XC energy correction          :         -37.52077200 Ha       -1020.99215365 eV
  | XC potential correction       :          47.96152622 Ha        1305.09953119 eV
  | Free-atom electrostatic energy:        -142.95414857 Ha       -3889.98030262 eV
  | Hartree energy correction     :          -5.87589314 Ha        -159.89118739 eV
  | van der Waals energy corr.    :           0.00000000 Ha           0.00000000 eV
  | Entropy correction            :          -0.00010367 Ha          -0.00282095 eV
  | ---------------------------
  | Total energy                  :        -306.70900901 Ha       -8345.97677368 eV
  | Total energy, T -> 0          :        -306.70911267 Ha       -8345.97959463 eV  <-- do not rely on this value for anything but (periodic) metals
  | Electronic free energy        :        -306.70921634 Ha       -8345.98241557 eV

  Derived energy quantities:
  | Kinetic energy                :         305.90944884 Ha        8324.21963449 eV
  | Electrostatic energy          :        -575.09768584 Ha      -15649.20425452 eV
  | Energy correction for multipole
  | error in Hartree potential    :          -0.00475501 Ha          -0.12939045 eV
  | Sum of eigenvalues per atom                           :        -352.32405086 eV
  | Total energy (T->0) per atom                          :        -641.99843036 eV  <-- do not rely on this value for anything but (periodic) metals
  | Electronic free energy per atom                       :        -641.99864735 eV

  Self-consistency convergence accuracy:
  | Change of charge density      : 0.6095E-02
  | Change of sum of eigenvalues  : -.7367E+00 eV
  | Change of total energy        : 0.5216E-03 eV

  End self-consistency iteration #     7       :  max(cpu_time)    wall_clock(cpu1)
  | Time for this iteration                    :        1.378 s           1.378 s
  | Charge density update                      :        0.442 s           0.442 s
  | Density mixing                             :        0.011 s           0.011 s
  | Hartree multipole update                   :        0.004 s           0.004 s
  | Hartree multipole summation                :        0.242 s           0.242 s
  | Integration                                :        0.641 s           0.642 s
  | Solution of K.-S. eqns.                    :        0.036 s           0.036 s
  | Total energy evaluation                    :        0.000 s           0.001 s
------------------------------------------------------------

------------------------------------------------------------
          Begin self-consistency iteration #    8

  Date     :  20150727, Time     :  122314.876
------------------------------------------------------------
  Evaluating new KS density.
  Integration grid: deviation in total charge (<rho> - N_e) =  -1.659352E-09
  Pulay mixing of updated and previous charge densities.

  Evaluating partitioned Hartree potential by multipole expansion.
  | Analytical far-field extrapolation by fixed multipoles:
  | Hartree multipole sum: apparent total charge =  -0.563189E-05
  Summing up the Hartree potential.
  Time summed over all CPUs for potential: real work        1.919 s, elapsed        1.930 s
  | RMS charge density error from multipole expansion :   0.160218E-01

  Integrating Hamiltonian matrix: batch-based integration.
  Time summed over all CPUs for integration: real work        5.016 s, elapsed        5.104 s

  Updating Kohn-Sham eigenvalues, eigenvectors, occupation numbers, and Fermi level.
  Solving generalized eigenproblem
  Updating Kohn-Sham eigenvalues and eigenfunctions.
  Solving real generalised eigenvalue problem by standard LAPACK (fast)
  Determining occupation numbers for Kohn-Sham eigenstates.
  | Chemical potential (Fermi level) in eV                 : -.20926657E+01
  | Error in electron count due to remaining E_F inaccuracy: 0.00000000E+00
  | Maximum occupation number of highest empty state:  0.00E+00

  Highest occupied state (VBM) at     -2.09266567 eV
  | Occupation number:      1.00000000

  Lowest unoccupied state (CBM) at    -2.09266567 eV
  | Occupation number:      1.00000000

  Overall HOMO-LUMO gap:      0.00000000 eV.

  Total energy components:
  | Sum of eigenvalues            :        -168.35663612 Ha       -4581.21715870 eV
  | XC energy correction          :         -37.51676647 Ha       -1020.88315766 eV
  | XC potential correction       :          47.95612719 Ha        1304.95261604 eV
  | Free-atom electrostatic energy:        -142.95414857 Ha       -3889.98030262 eV
  | Hartree energy correction     :          -5.83757924 Ha        -158.84861337 eV
  | van der Waals energy corr.    :           0.00000000 Ha           0.00000000 eV
  | Entropy correction            :          -0.00010367 Ha          -0.00282095 eV
  | ---------------------------
  | Total energy                  :        -306.70900322 Ha       -8345.97661631 eV
  | Total energy, T -> 0          :        -306.70910689 Ha       -8345.97943726 eV  <-- do not rely on this value for anything but (periodic) metals
  | Electronic free energy        :        -306.70921056 Ha       -8345.98225821 eV

  Derived energy quantities:
  | Kinetic energy                :         305.91915219 Ha        8324.48367619 eV
  | Electrostatic energy          :        -575.11138894 Ha      -15649.57713484 eV
  | Energy correction for multipole
  | error in Hartree potential    :          -0.00484289 Ha          -0.13178176 eV
  | Sum of eigenvalues per atom                           :        -352.40131990 eV
  | Total energy (T->0) per atom                          :        -641.99841825 eV  <-- do not rely on this value for anything but (periodic) metals
  | Electronic free energy per atom                       :        -641.99863525 eV

  Self-consistency convergence accuracy:
  | Change of charge density      : 0.3514E-02
  | Change of sum of eigenvalues  : -.1004E+01 eV
  | Change of total energy        : 0.1574E-03 eV

  End self-consistency iteration #     8       :  max(cpu_time)    wall_clock(cpu1)
  | Time for this iteration                    :        1.376 s           1.376 s
  | Charge density update                      :        0.441 s           0.441 s
  | Density mixing                             :        0.011 s           0.012 s
  | Hartree multipole update                   :        0.005 s           0.004 s
  | Hartree multipole summation                :        0.242 s           0.242 s
  | Integration                                :        0.639 s           0.640 s
  | Solution of K.-S. eqns.                    :        0.036 s           0.035 s
  | Total energy evaluation                    :        0.000 s           0.001 s
------------------------------------------------------------

------------------------------------------------------------
          Begin self-consistency iteration #    9

  Date     :  20150727, Time     :  122316.252
------------------------------------------------------------
  Evaluating new KS density.
  Integration grid: deviation in total charge (<rho> - N_e) =  -2.131628E-14
  Pulay mixing of updated and previous charge densities.

  Evaluating partitioned Hartree potential by multipole expansion.
  | Analytical far-field extrapolation by fixed multipoles:
  | Hartree multipole sum: apparent total charge =  -0.562507E-05
  Summing up the Hartree potential.
  Time summed over all CPUs for potential: real work        1.920 s, elapsed        1.930 s
  | RMS charge density error from multipole expansion :   0.160111E-01

  Integrating Hamiltonian matrix: batch-based integration.
  Time summed over all CPUs for integration: real work        5.012 s, elapsed        5.096 s

  Updating Kohn-Sham eigenvalues, eigenvectors, occupation numbers, and Fermi level.
  Solving generalized eigenproblem
  Updating Kohn-Sham eigenvalues and eigenfunctions.
  Solving real generalised eigenvalue problem by standard LAPACK (fast)
  Determining occupation numbers for Kohn-Sham eigenstates.
  | Chemical potential (Fermi level) in eV                 : -.20927045E+01
  | Error in electron count due to remaining E_F inaccuracy: 0.00000000E+00
  | Maximum occupation number of highest empty state:  0.00E+00

  Highest occupied state (VBM) at     -2.09270448 eV
  | Occupation number:      1.00000000

  Lowest unoccupied state (CBM) at    -2.09270448 eV
  | Occupation number:      1.00000000

  Overall HOMO-LUMO gap:      0.00000000 eV.

  Total energy components:
  | Sum of eigenvalues            :        -168.35636839 Ha       -4581.20987315 eV
  | XC energy correction          :         -37.51673782 Ha       -1020.88237797 eV
  | XC potential correction       :          47.95609865 Ha        1304.95183949 eV
  | Free-atom electrostatic energy:        -142.95414857 Ha       -3889.98030262 eV
  | Hartree energy correction     :          -5.83784606 Ha        -158.85587384 eV
  | van der Waals energy corr.    :           0.00000000 Ha           0.00000000 eV
  | Entropy correction            :          -0.00010367 Ha          -0.00282095 eV
  | ---------------------------
  | Total energy                  :        -306.70900219 Ha       -8345.97658810 eV
  | Total energy, T -> 0          :        -306.70910585 Ha       -8345.97940905 eV  <-- do not rely on this value for anything but (periodic) metals
  | Electronic free energy        :        -306.70920952 Ha       -8345.98222999 eV

  Derived energy quantities:
  | Kinetic energy                :         305.92421738 Ha        8324.62150690 eV
  | Electrostatic energy          :        -575.11648174 Ha      -15649.71571703 eV
  | Energy correction for multipole
  | error in Hartree potential    :          -0.00484159 Ha          -0.13174623 eV
  | Sum of eigenvalues per atom                           :        -352.40075947 eV
  | Total energy (T->0) per atom                          :        -641.99841608 eV  <-- do not rely on this value for anything but (periodic) metals
  | Electronic free energy per atom                       :        -641.99863308 eV

  Self-consistency convergence accuracy:
  | Change of charge density      : 0.9034E-03
  | Change of sum of eigenvalues  : 0.7286E-02 eV
  | Change of total energy        : 0.2821E-04 eV

  End self-consistency iteration #     9       :  max(cpu_time)    wall_clock(cpu1)
  | Time for this iteration                    :        1.377 s           1.378 s
  | Charge density update                      :        0.442 s           0.443 s
  | Density mixing                             :        0.013 s           0.013 s
  | Hartree multipole update                   :        0.005 s           0.004 s
  | Hartree multipole summation                :        0.242 s           0.242 s
  | Integration                                :        0.638 s           0.639 s
  | Solution of K.-S. eqns.                    :        0.036 s           0.035 s
  | Total energy evaluation                    :        0.000 s           0.000 s
------------------------------------------------------------

------------------------------------------------------------
          Begin self-consistency iteration #   10

  Date     :  20150727, Time     :  122317.630
------------------------------------------------------------
  Evaluating new KS density.
  Integration grid: deviation in total charge (<rho> - N_e) =   0.000000E+00
[...]
  | Electronic free energy        :        -306.71124692 Ha       -8346.03767046 eV

  Derived energy quantities:
  | Kinetic energy                :         305.92628970 Ha        8324.67789781 eV
  | Electrostatic energy          :        -575.11861846 Ha      -15649.77385992 eV
  | Energy correction for multipole
  | error in Hartree potential    :          -0.00486023 Ha          -0.13225349 eV
  | Sum of eigenvalues per atom                           :        -352.40355514 eV
  | Total energy (T->0) per atom                          :        -642.00268073 eV  <-- do not rely on this value for anything but (periodic) metals
  | Electronic free energy per atom                       :        -642.00289773 eV

  atomic forces [eV/Ang]:
  -----------------------
  atom #    1
   Hellmann-Feynman + Multipole  : -.259538E+01 -.739997E+01 -.739073E+01
   Pulay + GGA                   : 0.911196E+00 0.912544E+01 0.557059E+01
   Van der Waals               : -.438540E-02 0.273598E-02 -.817487E-02
   ----------------------------------------------------------------
   Total forces(   1)            : -.168857E+01 0.172821E+01 -.182831E+01
  atom #    2
   Hellmann-Feynman + Multipole  : 0.107725E+01 -.188115E+01 0.850810E+00
   Pulay + GGA                   : -.726526E-01 0.793365E-01 -.502243E-01
   Van der Waals               : -.406191E-02 -.418349E-03 -.470227E-02
   ----------------------------------------------------------------
   Total forces(   2)            : 0.100054E+01 -.180223E+01 0.795883E+00
  atom #    3
   Hellmann-Feynman + Multipole  : 0.708833E+00 0.808971E-01 -.100843E+00
   Pulay + GGA                   : 0.833716E-01 0.119094E-01 0.212437E-01
   Van der Waals               : 0.746799E-03 0.345806E-02 -.288359E-02
   ----------------------------------------------------------------
   Total forces(   3)            : 0.792952E+00 0.962646E-01 -.824830E-01
  atom #    4
   Hellmann-Feynman + Multipole  : -.123328E+00 -.574608E-01 0.727234E+00
   Pulay + GGA                   : -.404190E-01 -.904117E-02 0.738279E-01
   Van der Waals               : -.379315E-02 0.893913E-04 0.584181E-03
   ----------------------------------------------------------------
   Total forces(   4)            : -.167540E+00 -.664126E-01 0.801646E+00
  atom #    5
   Hellmann-Feynman + Multipole  : 0.742634E+01 -.561960E+01 -.791025E+01
   Pulay + GGA                   : -.767128E+01 0.409567E+01 0.676885E+01
   Van der Waals               : 0.323601E-02 0.123906E-02 0.322128E-02
   ----------------------------------------------------------------
   Total forces(   5)            : -.241707E+00 -.152269E+01 -.113818E+01
  atom #    6
   Hellmann-Feynman + Multipole  : -.814969E-01 0.930168E+00 0.972146E+00
   Pulay + GGA                   : 0.496648E-01 0.981914E-01 0.109181E+00
   Van der Waals               : 0.187356E-02 0.296224E-02 0.306579E-02
   ----------------------------------------------------------------
   Total forces(   6)            : -.299586E-01 0.103132E+01 0.108439E+01
  atom #    7
   Hellmann-Feynman + Multipole  : 0.279338E+00 0.503854E+00 0.255011E+00
   Pulay + GGA                   : -.117792E+00 -.689452E-01 0.486177E-01
   Van der Waals               : 0.693840E-03 0.903335E-03 0.259466E-03
   ----------------------------------------------------------------
   Total forces(   7)            : 0.162239E+00 0.435812E+00 0.303888E+00
  atom #    8
   Hellmann-Feynman + Multipole  : -.456018E+01 0.223753E+01 -.966409E+01
   Pulay + GGA                   : 0.601140E+01 -.235084E+01 0.105350E+02
   Van der Waals               : 0.130398E-02 0.309112E-02 0.319739E-02
   ----------------------------------------------------------------
   Total forces(   8)            : 0.145252E+01 -.110219E+00 0.874126E+00
  atom #    9
   Hellmann-Feynman + Multipole  : -.122227E+00 -.421991E+00 -.705383E+00
   Pulay + GGA                   : 0.906629E-02 0.926643E-01 0.129435E+00
   Van der Waals               : 0.366956E-02 0.237689E-02 0.323922E-02
   ----------------------------------------------------------------
   Total forces(   9)            : -.109491E+00 -.326950E+00 -.572709E+00
  atom #   10
   Hellmann-Feynman + Multipole  : -.126507E+01 0.657953E+00 -.269386E+00
   Pulay + GGA                   : 0.120892E+00 -.759873E-01 0.198550E-01
   Van der Waals               : -.160689E-02 0.132587E-02 0.153413E-02
   ----------------------------------------------------------------
   Total forces(  10)            : -.114579E+01 0.583291E+00 -.247997E+00
  atom #   11
   Hellmann-Feynman + Multipole  : -.141193E+02 -.512134E+01 0.714668E+00
   Pulay + GGA                   : 0.150014E+02 0.643929E+01 -.127543E+01
   Van der Waals               : 0.302176E-02 -.881332E-02 0.569164E-03
   ----------------------------------------------------------------
   Total forces(  11)            : 0.885103E+00 0.130914E+01 -.560192E+00
  atom #   12
   Hellmann-Feynman + Multipole  : -.414333E+00 0.365128E-01 -.969371E-01
   Pulay + GGA                   : 0.134724E+00 -.758269E-01 0.544835E-01
   Van der Waals               : -.121177E-02 -.592700E-02 -.174694E-04
   ----------------------------------------------------------------
   Total forces(  12)            : -.280820E+00 -.452411E-01 -.424711E-01
  atom #   13
   Hellmann-Feynman + Multipole  : -.681839E+00 -.142782E+01 0.671313E+00
   Pulay + GGA                   : 0.535274E-01 0.117897E+00 -.655598E-01
   Van der Waals               : 0.513619E-03 -.302328E-02 0.107570E-03
   ----------------------------------------------------------------
   Total forces(  13)            : -.627798E+00 -.131295E+01 0.605860E+00
  Timings for vdw_correction_hirshfeld (Tkatchenko-Scheffler 2009):
  | CPU time:        3.660 s, Wall clock time:        3.663 s.
  Removing unitary transformations (pure translations, rotations) from forces on atoms.
  Atomic forces before filtering:
  | Net force on center of mass :  0.168435E-02 -.265756E-02 -.654757E-02 eV/A
  | Net torque on center of mass:  0.174438E-01 0.721432E-02 -.139078E-01 eV
  Atomic forces after filtering:
  | Net force on center of mass :  0.000000E+00 0.000000E+00 0.892031E-16 eV/A
  | Net torque on center of mass:  -.188817E-15 -.542849E-15 0.000000E+00 eV
 
  Energy and forces in a compact form:
  | Total energy uncorrected      :         -0.834603202856589E+04 eV
  | Total energy corrected        :         -0.834603484951381E+04 eV  <-- do not rely on this value for anything but (periodic) metals
  | Electronic free energy        :         -0.834603767046173E+04 eV
  Total atomic forces (unitary forces cleaned) [eV/Ang]:
  |   1         -0.168808639618921E+01          0.172792896402994E+01         -0.182752441599254E+01
  |   2          0.100085915488797E+01         -0.180280274012527E+01          0.796200787958699E+00
  |   3          0.793339967480311E+00          0.962918572233821E-01         -0.815169565978582E-01
  |   4         -0.167291386614859E+00         -0.664452732596095E-01          0.802385859373270E+00
  |   5         -0.241817666673370E+00         -0.152224462389231E+01         -0.113742423946378E+01
  |   6         -0.304418500263042E-01          0.103204104678905E+01          0.108495092962413E+01
  |   7          0.162186957690708E+00          0.436123853633458E+00          0.304586225114033E+00
  |   8          0.145275482851004E+01         -0.109780401607320E+00          0.875293814649870E+00
  |   9         -0.109659718279885E+00         -0.326208269881832E+00         -0.571746878760521E+00
  |  10         -0.114541310594145E+01          0.584017394497577E+00         -0.246389038577234E+00
  |  11          0.884169570047523E+00          0.130907849365117E+01         -0.560915074392911E+00
  |  12         -0.281732719685827E+00         -0.449339435818527E-01         -0.428222145527128E-01
  |  13         -0.628867635205646E+00         -0.131306635747638E+01          0.604921201617552E+00
 
  ------------------------------------ 
  Start decomposition of the XC Energy 
  ------------------------------------ 
  Hartree-Fock part   :          0.000000000 Ha              0.000000000 eV
  ------------------------------------ 
  X Energy            :        -36.189138012 Ha           -984.756549181 eV
  C Energy GGA        :         -1.327535424 Ha            -36.124076859 eV
  Total XC Energy     :        -37.516673436 Ha          -1020.880626040 eV
  LDA X and C from self-consistent density 
  X Energy LDA        :        -32.613030484 Ha           -887.445712209 eV
  C Energy LDA        :         -2.676313796 Ha            -72.826203745 eV
  ------------------------------------ 
  End decomposition of the XC Energy 
  ------------------------------------ 
  Performing Hirshfeld analysis of fragment charges and moments.
  ----------------------------------------------------------------------
  | Atom     1: O
  |   Hirshfeld charge        :     -0.13076352
  |   Free atom volume        :     23.95238533
  |   Hirshfeld volume        :     21.85147955
  |   Hirshfeld dipole vector :      0.01398351       0.01962122       0.02454305
  |   Hirshfeld dipole moment :      0.03439320
  |   Hirshfeld second moments:      0.07153141      -0.00907621      -0.00808231
  |                                 -0.00907621       0.04382594      -0.02747270
  |                                 -0.00808231      -0.02747270       0.05540919
  ----------------------------------------------------------------------
  | Atom     2: H
  |   Hirshfeld charge        :      0.11090838
  |   Free atom volume        :     10.44207651
  |   Hirshfeld volume        :     11.49744656
  |   Hirshfeld dipole vector :     -0.00020541       0.01606353      -0.00612328
  |   Hirshfeld dipole moment :      0.01719225
  |   Hirshfeld second moments:      0.01304102       0.01931906      -0.00372701
  |                                  0.01931906       0.00056098       0.00850359
  |                                 -0.00372701       0.00850359       0.02064535
  ----------------------------------------------------------------------
  | Atom     3: H
  |   Hirshfeld charge        :      0.09889687
  |   Free atom volume        :     10.44207651
  |   Hirshfeld volume        :      9.73077213
  |   Hirshfeld dipole vector :      0.01565301       0.00168339       0.00363906
  |   Hirshfeld dipole moment :      0.01615838
  |   Hirshfeld second moments:      0.01766279      -0.01456843      -0.00527857
  |                                 -0.01456843       0.05198129       0.00445227
  |                                 -0.00527857       0.00445227       0.05233838
  ----------------------------------------------------------------------
  | Atom     4: H
  |   Hirshfeld charge        :      0.09973773
  |   Free atom volume        :     10.44207651
  |   Hirshfeld volume        :      9.83113797
  |   Hirshfeld dipole vector :     -0.00924086      -0.00639241       0.01707811
  |   Hirshfeld dipole moment :      0.02044304
  |   Hirshfeld second moments:      0.05221208       0.01264047       0.00398148
  |                                  0.01264047       0.05273340       0.00166809
  |                                  0.00398148       0.00166809       0.01400790
  ----------------------------------------------------------------------
  | Atom     5: O
  |   Hirshfeld charge        :     -0.22808986
  |   Free atom volume        :     23.95238533
  |   Hirshfeld volume        :     22.50926428
  |   Hirshfeld dipole vector :     -0.02785139       0.01730813      -0.00453477
  |   Hirshfeld dipole moment :      0.03310341
  |   Hirshfeld second moments:      0.01295325       0.05304356      -0.01542660
  |                                  0.05304356       0.02520047       0.01879350
  |                                 -0.01542660       0.01879350       0.05014544
  ----------------------------------------------------------------------
  | Atom     6: H
  |   Hirshfeld charge        :      0.10301539
  |   Free atom volume        :     10.44207651
  |   Hirshfeld volume        :     11.49454036
  |   Hirshfeld dipole vector :      0.00872315       0.04288182       0.03728246
  |   Hirshfeld dipole moment :      0.05748849
  |   Hirshfeld second moments:      0.00564298       0.01671540      -0.01611291
  |                                  0.01671540       0.00502241      -0.00362922
  |                                 -0.01611291      -0.00362922       0.04049186
  ----------------------------------------------------------------------
  | Atom     7: H
  |   Hirshfeld charge        :      0.12776824
  |   Free atom volume        :     10.44207651
  |   Hirshfeld volume        :     10.23447357
  |   Hirshfeld dipole vector :     -0.06530374      -0.04907300       0.01496636
  |   Hirshfeld dipole moment :      0.08304656
  |   Hirshfeld second moments:      0.03089057       0.02050489      -0.00438420
  |                                  0.02050489       0.04970572       0.01280837
  |                                 -0.00438420       0.01280837       0.05702377
  ----------------------------------------------------------------------
  | Atom     8: O
  |   Hirshfeld charge        :     -0.22876810
  |   Free atom volume        :     23.95238533
  |   Hirshfeld volume        :     23.14037883
  |   Hirshfeld dipole vector :     -0.01154914      -0.02796425       0.02735367
  |   Hirshfeld dipole moment :      0.04078732
  |   Hirshfeld second moments:      0.04156201      -0.01831580       0.00610050
  |                                 -0.01831580       0.01697793       0.04440083
  |                                  0.00610050       0.04440083      -0.02357130
  ----------------------------------------------------------------------
  | Atom     9: H
  |   Hirshfeld charge        :      0.07139102
  |   Free atom volume        :     10.44207651
  |   Hirshfeld volume        :     11.99217393
  |   Hirshfeld dipole vector :     -0.01145735       0.02589937       0.01976935
  |   Hirshfeld dipole moment :      0.03453803
  |   Hirshfeld second moments:      0.02931181      -0.01866339      -0.00619154
  |                                 -0.01866339       0.01346824       0.00260652
  |                                 -0.00619154       0.00260652      -0.04446498
  ----------------------------------------------------------------------
  | Atom    10: H
  |   Hirshfeld charge        :      0.10539651
  |   Free atom volume        :     10.44207651
  |   Hirshfeld volume        :     11.44109913
  |   Hirshfeld dipole vector :      0.04955163      -0.04499360      -0.00508378
  |   Hirshfeld dipole moment :      0.06712401
  |   Hirshfeld second moments:      0.02754460      -0.00058371      -0.00361722
  |                                 -0.00058371       0.02520491       0.02274796
  |                                 -0.00361722       0.02274796       0.00796620
  ----------------------------------------------------------------------
  | Atom    11: O
  |   Hirshfeld charge        :     -0.32355091
  |   Free atom volume        :     23.95238533
  |   Hirshfeld volume        :     24.42244539
  |   Hirshfeld dipole vector :      0.05885200       0.03882932      -0.00753473
  |   Hirshfeld dipole moment :      0.07090872
  |   Hirshfeld second moments:     -0.03781370      -0.02255092       0.02267239
  |                                 -0.02255092      -0.00370486      -0.05383526
  |                                  0.02267239      -0.05383526      -0.07391370
  ----------------------------------------------------------------------
  | Atom    12: H
  |   Hirshfeld charge        :      0.07213810
  |   Free atom volume        :     10.44207651
  |   Hirshfeld volume        :     10.74110388
  |   Hirshfeld dipole vector :      0.06766620      -0.01483457       0.01677742
  |   Hirshfeld dipole moment :      0.07127595
  |   Hirshfeld second moments:      0.00984731       0.00587599      -0.00253286
  |                                  0.00587599       0.05415246      -0.00626474
  |                                 -0.00253286      -0.00626474       0.00142124
  ----------------------------------------------------------------------
  | Atom    13: H
  |   Hirshfeld charge        :      0.12192809
  |   Free atom volume        :     10.44207651
  |   Hirshfeld volume        :      8.45362501
  |   Hirshfeld dipole vector :      0.02978829       0.10431511      -0.04805947
  |   Hirshfeld dipole moment :      0.11865368
  |   Hirshfeld second moments:      0.07990430      -0.01149174       0.01144768
  |                                 -0.01149174       0.07991261      -0.01931740
  |                                  0.01144768      -0.01931740       0.06258078
  ----------------------------------------------------------------------


------------------------------------------------------------------------------
  Final output of selected total energy values:

  The following output summarizes some interesting total energy values
  at the end of a run (AFTER all relaxation, molecular dynamics, etc.).

  | Total energy of the DFT / Hartree-Fock s.c.f. calculation      :          -8346.032028566 eV
  | Final zero-broadening corrected energy (caution - metals only) :          -8346.034849514 eV
  | For reference only, the value of 1 Hartree used in FHI-aims is :             27.211384500 eV

  Before relying on these values, please be sure to understand exactly which
  total energy value is referred to by a given number. Different objects may
  all carry the same name 'total energy'. Definitions:

  Total energy of the DFT / Hartree-Fock s.c.f. calculation:
  | Note that this energy does not include ANY quantities calculated after the
  | s.c.f. cycle, in particular not ANY RPA, MP2, etc. many-body perturbation terms.

  Final zero-broadening corrected energy:
  | For metallic systems only, a broadening of the occupation numbers at the Fermi
  | level can be extrapolated back to zero broadening by an electron-gas inspired
  | formula. For all systems that are not real metals, this value can be
  | meaningless and should be avoided.

------------------------------------------------------------------------------

------------------------------------------------------------
          Leaving FHI-aims.
          Date     :  20150727, Time     :  122333.762

          Computational steps:
          | Number of self-consistency cycles          :           17

          Detailed time accounting                     :  max(cpu_time)    wall_clock(cpu1)
          | Total time                                 :       30.440 s          30.457 s
          | Preparation time                           :        0.174 s           0.493 s
          | Grid partitioning                          :        0.130 s           0.130 s
          | Preloading free-atom quantities on grid    :        0.014 s           0.013 s
          | Free-atom superposition energy             :        0.052 s           0.052 s
          | Total time for integrations                :       11.869 s          11.871 s
          | Total time for solution of K.-S. equations :        0.739 s           0.741 s
          | Total time for density & force components  :       11.287 s          11.287 s
          | Total time for mixing                      :        0.187 s           0.189 s
          | Total time for Hartree multipole update    :        0.080 s           0.077 s
          | Total time for Hartree multipole sum       :        5.313 s           5.315 s
          | Total time for total energy evaluation     :        0.006 s           0.024 s
          | Total time for scaled ZORA corrections     :        0.000 s           0.000 s
          | Total time for TS (2009) vdW correction    :        0.043 s           0.046 s

          Have a nice day.
------------------------------------------------------------
