  MPI-parallelism will be employed.
------------------------------------------------------------
          Invoking FHI-aims ...
          Version 081213
          Compiled on 2013/08/29 at 17:41:06 on host generoso.

          When using FHI-aims, please cite the following reference:

          Volker Blum, Ralf Gehrke, Felix Hanke, Paula Havu,
          Ville Havu, Xinguo Ren, Karsten Reuter, and Matthias Scheffler,
          'Ab Initio Molecular Simulations with Numeric Atom-Centered Orbitals: FHI-aims',
          Computer Physics Communications 180, 2175-2196 (2009)

          For any questions about FHI-aims, please visit the aimsclub website
          with its forums and wiki. Contributions to both the forums and the
          wiki are warmly encouraged - they are for you, and everyone is welcome there.

------------------------------------------------------------

  Date     :  20150727, Time     :  125146.021
  Time zero on CPU 1             :   0.419930000000000E-01  s.
  Internal wall clock time zero  :           207233506.021  s.

  Using        8 parallel tasks.
  Task        0 on host gen59 reporting.
  Task        1 on host gen59 reporting.
  Task        2 on host gen59 reporting.
  Task        3 on host gen59 reporting.
  Task        4 on host gen59 reporting.
  Task        5 on host gen59 reporting.
  Task        6 on host gen59 reporting.
  Task        7 on host gen59 reporting.

  Performing system and environment tests:
  | Environment variable OMP_NUM_THREADS correctly set to 1.
  | Checking for scalapack...
  | No scalapack compiled in.

  Obtaining array dimensions for all initial allocations:
  
  -----------------------------------------------------------------------
  Parsing control.in (first pass over file, find array dimensions only).
  The contents of control.in will be repeated verbatim below
  unless switched off by setting 'verbatim_writeout .false.' .
  in the first line of control.in .
  -----------------------------------------------------------------------
  
  #########################################################################################
  #
  #  Volker Blum, FHI 2008 : Test run input file control.in
  #
  #########################################################################################
  #
  #  Physical model
  #
    xc                 rpbe
    spin               none
    relativistic       atomic_zora scalar
    charge             0.
   vdw_correction_hirshfeld
  #
  #  SCF convergence
  #
    occupation_type    gaussian 0.01
    mixer              pulay
      n_max_pulay        10
      charge_mix_param   0.1
    sc_accuracy_rho    5E-5
    sc_accuracy_eev    5E-3
    sc_accuracy_etot   5E-6
    sc_iter_limit      3000
  #
  #  Eigenvalue solver
  #
    KS_method          lapack
      empty_states       8
      basis_threshold    0.e-5
  #
  #  Efficiency
  #
  #   all previous settings are now default, except stratmann still
  #   undecided. Continue to handle stratmann with care, if at all.
  #
  #  partition_type stratmann
    partition_type rho_r2
  #  hartree_partition_type stratmann
  #
  #  Oprions for large clusters (100's of atoms: memory saving / better scaling)
  #
  # for periodic systems:
  #
    density_update_method orbital
    packed_matrix_format none
  #  k_grid 6 6 6
  #  output k_eigenvalue 1
  #  distributed_spline_storage .true.
  #
  #  Relaxation
  #
  #  relax_geometry   bfgs 5.e-3
    sc_accuracy_forces 5.E-4
    final_forces_cleaned .true.
  #
  #  Output options
  #
  #  output mulliken
    output Hirshfeld
  #  output dipole
  
  #harmonic_length_scale 0.001
  
  ################################################################################
  #
  #  FHI-aims code project
  #  VB, Fritz-Haber Institut, 2007
  #
  #  Suggested "safe" defaults for H atom (to be pasted into control.in file)
  #  Basis constructed for a non-relativistic H2 molecule using the
  #  PW-LDA functional.
  #
  ################################################################################
    species        H
  #     global species definitions
      nucleus             1
      cut_pot             4.0  2.0  1.0
      cut_free_atom       finite 8.0
      logarithmic         0.00010000 100.00  1.0123
      basis_dep_cutoff    1d-4  # 1d-4 is safe default - please check 5d-4 if you wish!
      radial_base         24 7.0
      radial_multiplier   2
      angular_grids       specified
        division   0.2783  110
        division   0.3822  194
        division   0.5626  302
  #      division   0.5922  434
  #      division   0.6227  590
  #      division   0.7206  770
        outer_grid  302
      l_hartree           4
  ################################################################################
  #
  #  Definition of "minimal" basis
  #
  ################################################################################
  #     valence basis states
      valence      1  s   1.
  #     ion occupancy
      ion_occ      1  s   0.5
  ################################################################################
  #
  #  Suggested additional basis functions. For production calculations,
  #  uncomment them one after another (the most important basis functions are
  #  listed first).
  #
  ################################################################################
  #  "First tier" - improvements: -1014.90 meV to -62.69 meV
       hydro 2 s 2.1
       hydro 2 p 3.5
  #  "Second tier" - improvements: -12.89 meV to -1.83 meV
       hydro 1 s 0.85
       hydro 2 p 3.7
       hydro 2 s 1.2
       hydro 3 d 7
  #  "Third tier" - improvements: -0.25 meV to -0.12 meV
  #     hydro 4 f 11.2
  #     hydro 3 p 4.8
  #     hydro 4 d 9
  #     hydro 3 s 3.2
  
  ################################################################################
  #
  #  FHI-aims code project
  #  VB, Fritz-Haber Institut, 2007
  #
  #  Suggested "safe" defaults for O atom (to be pasted into control.in file)
  #  All values have been tested for a non-relativistic, non-spinpolarized O2
  #  molecule using the PW-LDA functional. Validity for PBE is expected.
  #
  #  Constructed for dimers: 1.0 A, 1.208 A, 1.5 A, 2.0 A, 3.0 A
  #
  ################################################################################
    species        O
  #     global species definitions
      nucleus             8
      mass                15.9994
      l_hartree           4
      cut_pot             4.0  2.0  1.0
      cut_free_atom       finite 8.0
      basis_dep_cutoff    1d-4  # 1d-4 is safe default - please check 5d-4 if you wish!
      logarithmic         0.00010000 100.00  1.0123
      radial_base         36 7.0
      radial_multiplier   2
       angular_grids specified
        division   0.4087  110
        division   0.5181  194
        division   0.6184  302
  #      division   0.7315  434
  #      division   0.7934  590
  #      division   0.9656  770
  #      division   1.4041  974
  #      outer_grid 974
        outer_grid 302
  ################################################################################
  #
  #  Definition of "minimal" basis
  #
  ################################################################################
  #     valence basis states
      valence      2  s   2.
      valence      2  p   4.
  #     ion occupancy
      ion_occ      2  s   1.
      ion_occ      2  p   3.
  ################################################################################
  #
  #  Suggested additional basis functions. For production calculations,
  #  uncomment them one after another (the most important basis functions are
  #  listed first).
  #
  ################################################################################
  #  "First tier" - improvements: -699.05 meV to -159.38 meV
       hydro 2 p 1.8
       hydro 3 d 7.6
       hydro 3 s 6.4
  #  "Second tier" - improvements: -49.91 meV to -5.39 meV
       hydro 4 f 11.6
       hydro 3 p 6.2
       hydro 3 d 5.6
       hydro 5 g 17.6
       hydro 1 s 0.75
  #  "Third tier" - improvements: -2.83 meV to -0.50 meV
  #     ionic 2 p auto
  #     hydro 4 f 10.8
  #     hydro 4 d 4.7
  #     hydro 2 s 6.8
  #  "Fourth tier" - improvements: -0.40 meV to -0.12 meV
  #     hydro 3 p 5
  #     hydro 3 s 3.3
  #     hydro 5 g 15.6
  #     hydro 4 f 17.6
  #     hydro 4 d 14
  # Further basis functions - -0.08 meV and below
  #     hydro 3 s 2.1
  #     hydro 4 d 11.6
  #     hydro 3 p 16
  #     hydro 2 s 17.2
  
  
  -----------------------------------------------------------------------
  Completed first pass over input file control.in .
  -----------------------------------------------------------------------
  
  
  -----------------------------------------------------------------------
  Parsing geometry.in (first pass over file, find array dimensions only).
  The contents of geometry.in will be repeated verbatim below
  unless switched off by setting 'verbatim_writeout .false.' .
  in the first line of geometry.in .
  -----------------------------------------------------------------------
  
  atom      -4.053030000      0.065001000     -1.525160000  O
  atom      -4.566710000      0.974813000     -1.912820000  H
  atom      -3.067820000      0.330172000     -1.477310000  H
  atom      -4.370360000     -0.049164000     -0.572274000  H
  atom      -5.293160000      2.192130000     -2.328800000  O
  atom      -4.829300000      2.988660000     -1.973850000  H
  atom      -5.428570000      2.328640000     -3.235170000  H
  atom      -4.066610000      4.258280000     -0.900064000  O
  atom      -3.224110000      3.876870000     -0.569443000  H
  atom      -3.737450000      5.116530000     -1.322720000  H
  atom      -5.628340000      3.730740000      1.385610000  O
  atom      -6.090650000      4.418470000      1.860350000  H
  atom      -5.158540000      4.200260000      0.615875000  H
  
  -----------------------------------------------------------------------
  Completed first pass over input file geometry.in .
  -----------------------------------------------------------------------
  
 
  Basic array size parameters: 
  | Number of species                 :        2
  | Number of atoms                   :       13
  | Max. basis fn. angular momentum   :        4
  | Max. atomic/ionic basis occupied n:        2
  | Max. number of basis fn. types    :        2
  | Max. radial fns per species/type  :        8
  | Max. logarithmic grid size        :     1301
  | Max. radial integration grid size :       73
  | Max. angular integration grid size:      302
  | Max. angular grid division number :        8
  | Radial grid for Hartree potential :     1301
  | Number of spin channels           :        1

------------------------------------------------------------
          Reading file control.in.
------------------------------------------------------------
  XC: Using RPBE gradient-corrected functionals.
  Spin treatment: No spin polarisation.
  Scalar relativistic treatment of kinetic energy: on-site free-atom approximation to ZORA.
  Charge =   0.000000E+00: Neutral system requested explicitly.
  Using non-empirical van der Waals correction (Hirshfeld partitioning):
  Occupation type: Gaussian broadening, width =   0.100000E-01 eV.
  Using pulay charge density mixing.
  Pulay mixing - number of memorized iterations:   10
  Charge density mixing - mixing parameter:     0.1000
  Convergence accuracy of self-consistent charge density: 0.5000E-04
  Convergence accuracy of sum of eigenvalues: 0.5000E-02
  Convergence accuracy of total energy: 0.5000E-05
  Maximum number of s.-c. iterations  :  3000
  Kohn-Sham eigenvalues and eigenfunctions calculated by lapack diagonalisation (D&C).
  Number of empty states per atom:        8
  Threshold for basis singularities: 0.0000E+00
  Partition function in integrals calculations: rho / r^2
 Using packed matrix format           0
  Convergence accuracy of forces: 0.5000E-03
  Cleaning forces before final output.
  Hirshfeld charge analysis will be performed.
 
  Reading configuration options for species H                   .
  | Found nuclear charge :   1.0000
  | Found cutoff potl. onset [A], width [A], scale factor :    4.00000    2.00000    1.00000
  | Found cutoff specification for free atom: Cutoff potential begins at    8.00000 A.
  | Found logarithmic grid data [bohr] : 0.1000E-03 0.1000E+03 0.1012E+01
  | Threshold for basis-dependent cutoff potential is   0.100000E-03
  | Found data for basic radial integration grid :    24 points, outermost radius =    7.000 A
  | Found multiplier for basic radial grid :   2
  | Found angular grid specification: user-specified.
  | Specified grid contains     4 separate shells.
  | Check grid settings after all constraints further below.
  | Found l_max for Hartree potential  :   4
  | Found free-atom valence shell :  1 s   1.000
  | No ionic wave fns used. Skipping ion_occ.
  | Found hydrogenic basis function :  2 s   2.100
  | Found hydrogenic basis function :  2 p   3.500
  | Found hydrogenic basis function :  1 s   0.850
  | Found hydrogenic basis function :  2 p   3.700
  | Found hydrogenic basis function :  2 s   1.200
  | Found hydrogenic basis function :  3 d   7.000
  Species H                   : Missing cutoff potential type.
  Defaulting to exp(1/x)/(1-x)^2 type cutoff potential.
  Species H : On-site basis accuracy parameter (for Gram-Schmidt orthonormalisation) not specified.
  Using default value basis_acc =  0.1000000E-03.
  Species H                   : Using default innermost maximum threshold i_radial=  2 for radial functions.
  Species H                   : Basic radial grid will be enhanced according to radial_multiplier =   2, to contain    49 grid points.
 
  Reading configuration options for species O                   .
  | Found nuclear charge :   8.0000
  | Found atomic mass :    15.9994000000000      amu
  | Found l_max for Hartree potential  :   4
  | Found cutoff potl. onset [A], width [A], scale factor :    4.00000    2.00000    1.00000
  | Found cutoff specification for free atom: Cutoff potential begins at    8.00000 A.
  | Threshold for basis-dependent cutoff potential is   0.100000E-03
  | Found logarithmic grid data [bohr] : 0.1000E-03 0.1000E+03 0.1012E+01
  | Found data for basic radial integration grid :    36 points, outermost radius =    7.000 A
  | Found multiplier for basic radial grid :   2
  | Found angular grid specification: user-specified.
  | Specified grid contains     4 separate shells.
  | Check grid settings after all constraints further below.
  | Found free-atom valence shell :  2 s   2.000
  | Found free-atom valence shell :  2 p   4.000
  | No ionic wave fns used. Skipping ion_occ.
  | No ionic wave fns used. Skipping ion_occ.
  | Found hydrogenic basis function :  2 p   1.800
  | Found hydrogenic basis function :  3 d   7.600
  | Found hydrogenic basis function :  3 s   6.400
  | Found hydrogenic basis function :  4 f  11.600
  | Found hydrogenic basis function :  3 p   6.200
  | Found hydrogenic basis function :  3 d   5.600
  | Found hydrogenic basis function :  5 g  17.600
  | Found hydrogenic basis function :  1 s   0.750
  Species O                   : Missing cutoff potential type.
  Defaulting to exp(1/x)/(1-x)^2 type cutoff potential.
  Species O : On-site basis accuracy parameter (for Gram-Schmidt orthonormalisation) not specified.
  Using default value basis_acc =  0.1000000E-03.
  Species O                   : Using default innermost maximum threshold i_radial=  2 for radial functions.
  Species O                   : Basic radial grid will be enhanced according to radial_multiplier =   2, to contain    73 grid points.
 
  Finished reading input file 'control.in'. Consistency checks are next.
 
  Target number of points in a grid batch is not set. Defaulting to  100
  Method for grid partitioning is not set. Defaulting to parallel hash+maxmin partitioning.
  Batch size limit is not set. Defaulting to    200
  By default, will store active basis functions for each batch.
  If in need of memory, prune_basis_once .false. can be used to disable this option.
  communication_type for Hartree potential was not specified.
  Defaulting to calc_hartree .
  Pulay mixer: Number of initial linear mixing iterations not set.
  Defaulting to    0 iterations.
  Work space size for distributed Hartree potential not set.
  Defaulting to   0.200000E+03 MB.
  Algorithm-dependent basis array size parameters:
  | n_max_pulay                         :       10
  Geometry relaxation not requested: no relaxation will be performed.
  Handling of forces: Unphysical translation and rotation will be removed from forces.
  No accuracy limit for integral partition fn. given. Defaulting to 0.1000E-14.
  No threshold value for u(r) in integrations given. Defaulting to 0.1000E-05.
  No accuracy for occupation numbers given. Defaulting to 0.1000E-07.
  No threshold value for occupation numbers given. Defaulting to 0.0000E+00.
  No accuracy for fermi level given. Defaulting to 0.1000E-19.
  Maximum # of iterations to find E_F not set. Defaulting to  200.
  Will not use alltoall communication since running on < 1024 CPUs.
  Partitioning for Hartree potential was not defined. Using partition_type for integrals.
  | Reporting present value of keyword multip_moments_threshold  :       0.10000000E-09
  | This value may affect high angular momentum components of the Hartree potential in periodic systems.
  No q(lm)/r^(l+1) cutoff set for long-range Hartree potential.
  | Using default value of  0.100000E-09 .
  | Verify using the multipole_threshold keyword.
  Defaulting to new monopole extrapolation.
  Density update method: Loop over occupied states selected for charge density update.
------------------------------------------------------------


------------------------------------------------------------
          Reading geometry description geometry.in.
------------------------------------------------------------
  Input structure read successfully.
  The structure contains       13 atoms,  and a total of         41.000 electrons.

  Input geometry:
  | No unit cell requested.
  | Atomic structure:
  |       Atom                x [A]            y [A]            z [A]
  |    1: Species O             -4.053030         0.065001        -1.525160
  |    2: Species H             -4.566710         0.974813        -1.912820
  |    3: Species H             -3.067820         0.330172        -1.477310
  |    4: Species H             -4.370360        -0.049164        -0.572274
  |    5: Species O             -5.293160         2.192130        -2.328800
  |    6: Species H             -4.829300         2.988660        -1.973850
  |    7: Species H             -5.428570         2.328640        -3.235170
  |    8: Species O             -4.066610         4.258280        -0.900064
  |    9: Species H             -3.224110         3.876870        -0.569443
  |   10: Species H             -3.737450         5.116530        -1.322720
  |   11: Species O             -5.628340         3.730740         1.385610
  |   12: Species H             -6.090650         4.418470         1.860350
  |   13: Species H             -5.158540         4.200260         0.615875
  |

  | The smallest distance between any two atoms is         0.92654057 AA.
  |
  | The first atom of this pair is atom number                      5 .
  | The second atom of this pair is atom number                     7 .

  Structure-dependent array size parameters: 
  | Maximum number of distinct radial functions  :       18
  | Maximum number of basis functions            :      291
  | Number of Kohn-Sham states (occupied + empty):       73
------------------------------------------------------------

------------------------------------------------------------
          Preparing all fixed parts of the calculation.
------------------------------------------------------------
  Determining machine precision:
    2.225073858507201E-308
  Setting up grids for atomic and cluster calculations.

  Creating wave function, potential, and density for free atoms.

  Species: H

  List of occupied orbitals and eigenvalues:
    n    l              occ      energy [Ha]    energy [eV]
    1    0           1.0000        -0.241408        -6.5691


  Species: O

  List of occupied orbitals and eigenvalues:
    n    l              occ      energy [Ha]    energy [eV]
    1    0           2.0000       -18.944147      -515.4965
    2    0           2.0000        -0.883529       -24.0421
    2    1           4.0000        -0.330176        -8.9845

  Creating fixed part of basis set: Ionic, confined, hydrogenic.
 
  H                    hydrogenic:
 
  List of hydrogenic basis orbitals: 
    n    l      effective z      eigenvalue [eV]  inner max. [A]     outer max. [A]     outer radius [A]   
    2    0         2.100000       -14.9965           0.193241           1.317192           5.372934
    2    1         3.500000       -41.6672           0.602363           0.602363           4.056010
    1    0         0.850000        -9.8292           0.624864           0.624864           5.372934
    2    1         3.700000       -46.5653           0.573616           0.573616           3.909951
    2    0         1.200000        -4.5995           0.334977           2.228160           5.505921
    3    2         7.000000       -74.0753           0.680692           0.680692           3.769152
 
 
  O                    hydrogenic:
 
  List of hydrogenic basis orbitals: 
    n    l      effective z      eigenvalue [eV]  inner max. [A]     outer max. [A]     outer radius [A]   
    2    1         1.800000       -11.0118           1.178546           1.178546           5.432516
    3    2         7.600000       -87.3182           0.624117           0.624117           3.541422
    3    0         6.400000       -61.9209           0.061166           1.081887           4.306510
    4    3        11.600000      -114.4238           0.731621           0.731621           3.584982
    3    1         6.200000       -58.1113           0.255677           1.030255           4.306510
    3    2         5.600000       -47.4081           0.847222           0.847222           4.413102
    5    4        17.600000      -168.5799           0.749730           0.749730           3.372413
    1    0         0.750000        -7.6499           0.705275           0.705275           5.366508
 

  Adding cutoff potential to free-atom effective potential.
  Creating atomic-like basis functions for current effective potential.

  Species H                   :

  List of atomic basis orbitals and eigenvalues:
    n    l      energy [Ha]    energy [eV]    outer radius [A]
    1    0        -0.241374        -6.5681       5.372934


  Species O                   :

  List of atomic basis orbitals and eigenvalues:
    n    l      energy [Ha]    energy [eV]    outer radius [A]
    1    0       -18.944147      -515.4965       1.415745
    2    0        -0.883529       -24.0421       5.048305
    2    1        -0.330173        -8.9845       5.301302

  Assembling full basis from fixed parts.
  | Species H :   atomic orbital   1 s accepted.
  | Species H :    hydro orbital   2 s accepted.
  | Species H :    hydro orbital   1 s accepted.
  | Species H :    hydro orbital   2 s accepted.
  | Species H :    hydro orbital   2 p accepted.
  | Species H :    hydro orbital   2 p accepted.
  | Species H :    hydro orbital   3 d accepted.
  | Species O :   atomic orbital   1 s accepted.
  | Species O :    hydro orbital   3 s accepted.
  | Species O :   atomic orbital   2 s accepted.
  | Species O :    hydro orbital   1 s accepted.
  | Species O :    hydro orbital   3 p accepted.
  | Species O :   atomic orbital   2 p accepted.
  | Species O :    hydro orbital   2 p accepted.
  | Species O :    hydro orbital   3 d accepted.
  | Species O :    hydro orbital   3 d accepted.
  | Species O :    hydro orbital   4 f accepted.
  | Species O :    hydro orbital   5 g accepted.
 
  Basis size parameters after reduction:
  | Total number of radial functions:       18
  | Total number of basis functions :      291
 
  Testing on-site integration grid accuracy.
  |  Species  Function  <phi|h_atom|phi> (log., in eV)  <phi|h_atom|phi> (rad., in eV)
           1        1                 -6.5683835025                 -6.5684759159
           1        2                 13.3711789951                 13.3708738703
           1        3                 23.6590910787                 23.6532055418
           1        4                 16.2963827186                 16.1870710655 ***
           1        5                 28.7627214838                 28.7627215090
           1        6                 59.5965249172                 59.5965950857
           1        7                 60.2220506392                 60.2220503827
           2        8               -515.4964576505               -515.4964530710
           2        9                 15.3030791347                 15.3030722972
           2       10                -21.7296094581                -21.7296135470
           2       11                 14.2969371730                 14.2969701621
           2       12                 21.0679693190                 21.0679697493
           2       13                 -2.3833606469                 -2.3833613176
           2       14                 13.7067136422                 13.7066766629
           2       15                 45.8013116808                 45.8013116965
           2       16                 52.2309815402                 52.2309831494
           2       17                 85.4120732416                 85.4120732763
           2       18                142.1019167745                142.1019167817
 * Note: Onsite integrals marked "***" above are less accurate than
 * onsite_accuracy_threshold =    0.03000 eV. Usually, this is harmless.
 * When in doubt, tighten the "radial" and/or "radial_multiplier" flags to check.

  Preparing densities etc. for the partition functions (integrals / Hartree potential).

  Preparations completed.
  max(cpu_time)          :      0.170 s.
  Wall clock time (cpu1) :      0.509 s.
------------------------------------------------------------

------------------------------------------------------------
          Begin self-consistency loop: Initialization.

          Date     :  20150727, Time     :  125146.572
------------------------------------------------------------

  Initializing index lists of integration centers etc. from given atomic structure:
  | Number of centers in hartree potential         :        13
  | Number of centers in hartree multipole         :        13
  | Number of centers in electron density summation:        13
  | Number of centers in basis integrals           :        13
  | Number of centers in integrals                 :        13
  Partitioning the integration grid into batches with parallel hashing+maxmin method.
  | Number of batches:     1771
  | Maximal batch size:     197
  | Minimal batch size:      50
  | Average batch size:      95.405
  | Standard deviation of batch sizes:      29.305

  Integration load balanced across     8 MPI tasks.
  Work distribution over tasks is as follows:
  Task     0 has      21138 integration points.
  Task     1 has      21155 integration points.
  Task     2 has      21100 integration points.
  Task     3 has      21101 integration points.
  Task     4 has      21094 integration points.
  Task     5 has      21117 integration points.
  Task     6 has      21141 integration points.
  Task     7 has      21116 integration points.
  Initializing partition tables, free-atom densities, potentials, etc. across the integration grid (initialize_grid_storage).
  | Net number of integration points:   168962
  | of which are non-zero points    :   168447
  Obtaining max. number of non-zero basis functions in each batch (get_n_compute_maxes).
  | Maximal number of non-zero basis functions:      289 in task     0
  | Maximal number of non-zero basis functions:      289 in task     1
  | Maximal number of non-zero basis functions:      289 in task     2
  | Maximal number of non-zero basis functions:      289 in task     3
  | Maximal number of non-zero basis functions:      289 in task     4
  | Maximal number of non-zero basis functions:      289 in task     5
  | Maximal number of non-zero basis functions:      289 in task     6
  | Maximal number of non-zero basis functions:      289 in task     7
  Integrating Hamiltonian matrix: batch-based integration.
  Time summed over all CPUs for integration: real work        5.242 s, elapsed        5.355 s
  Integrating overlap matrix.
  Time summed over all CPUs for integration: real work        2.763 s, elapsed        2.796 s

  Updating Kohn-Sham eigenvalues, eigenvectors, occupation numbers, and Fermi level.
  Solving generalized eigenproblem
  Updating Kohn-Sham eigenvalues and eigenfunctions.
  Transforming overlap matrix and checking for singularities.
  Overlap matrix is nonsingular:
  | Lowest eigenvalue:  0.300459E-03
  Solving real generalised eigenvalue problem by standard LAPACK (fast)
  Determining occupation numbers for Kohn-Sham eigenstates.
  | Chemical potential (Fermi level) in eV                 : -.27242420E+01
  | Error in electron count due to remaining E_F inaccuracy: 0.00000000E+00
  | Maximum occupation number of highest empty state:  0.00E+00

  Writing Kohn-Sham eigenvalues.

  State    Occupation    Eigenvalue [Ha]    Eigenvalue [eV]
      1       2.00000         -19.064971         -518.78425
      2       2.00000         -19.064883         -518.78187
      3       2.00000         -19.045334         -518.24990
      4       2.00000         -19.044608         -518.23016
      5       2.00000          -1.127991          -30.69418
      6       2.00000          -1.113090          -30.28872
      7       2.00000          -1.093620          -29.75892
      8       2.00000          -1.086058          -29.55315
      9       2.00000          -0.653947          -17.79480
     10       2.00000          -0.627486          -17.07475
     11       2.00000          -0.623492          -16.96609
     12       2.00000          -0.620467          -16.88377
     13       2.00000          -0.607166          -16.52182
     14       2.00000          -0.530023          -14.42266
     15       2.00000          -0.515829          -14.03642
     16       2.00000          -0.499287          -13.58630
     17       2.00000          -0.487305          -13.26024
     18       2.00000          -0.452842          -12.32246
     19       2.00000          -0.439160          -11.95015
     20       2.00000          -0.430035          -11.70186
     21       1.00000          -0.100114           -2.72424
     22       0.00000          -0.073343           -1.99577
     23       0.00000          -0.046242           -1.25830
     24       0.00000          -0.040008           -1.08868
     25       0.00000          -0.019658           -0.53492
     26       0.00000          -0.003915           -0.10653
     27       0.00000           0.032654            0.88857
     28       0.00000           0.042088            1.14528
     29       0.00000           0.047527            1.29327
     30       0.00000           0.069685            1.89623
     31       0.00000           0.075754            2.06136
     32       0.00000           0.086343            2.34951
     33       0.00000           0.086560            2.35541
     34       0.00000           0.100171            2.72579
     35       0.00000           0.101235            2.75475
     36       0.00000           0.106042            2.88555
     37       0.00000           0.122496            3.33330
     38       0.00000           0.133278            3.62668
     39       0.00000           0.137748            3.74831
     40       0.00000           0.157778            4.29336
     41       0.00000           0.164875            4.48647
     42       0.00000           0.176339            4.79844
     43       0.00000           0.193793            5.27338
     44       0.00000           0.220675            6.00486
     45       0.00000           0.229294            6.23940
     46       0.00000           0.245671            6.68506
     47       0.00000           0.255667            6.95706
     48       0.00000           0.278943            7.59042
     49       0.00000           0.288148            7.84089
     50       0.00000           0.315994            8.59863
     51       0.00000           0.332661            9.05217
     52       0.00000           0.350170            9.52860
     53       0.00000           0.360553            9.81115
     54       0.00000           0.371120           10.09869
     55       0.00000           0.377398           10.26951
     56       0.00000           0.396506           10.78949
     57       0.00000           0.403179           10.97107
     58       0.00000           0.428369           11.65651
     59       0.00000           0.446601           12.15264
     60       0.00000           0.455636           12.39849
     61       0.00000           0.473197           12.87635
     62       0.00000           0.481230           13.09494
     63       0.00000           0.492234           13.39436
     64       0.00000           0.508970           13.84977
     65       0.00000           0.551459           15.00597
     66       0.00000           0.574532           15.63382
     67       0.00000           0.580772           15.80362
     68       0.00000           0.630476           17.15612
     69       0.00000           0.674972           18.36692
     70       0.00000           0.684799           18.63433
     71       0.00000           0.719393           19.57567
     72       0.00000           0.748898           20.37856
     73       0.00000           0.770256           20.95974

  Highest occupied state (VBM) at     -2.72424202 eV
  | Occupation number:      1.00000000

  Lowest unoccupied state (CBM) at    -2.72424202 eV
  | Occupation number:      1.00000000

  Overall HOMO-LUMO gap:      0.00000000 eV.
  Calculating total energy contributions from superposition of free atom densities.

  Total energy components:
  | Sum of eigenvalues            :        -174.35530385 Ha       -4744.44921259 eV
  | XC energy correction          :         -36.82593940 Ha       -1002.08479659 eV
  | XC potential correction       :          47.06709601 Ha        1280.76084684 eV
  | Free-atom electrostatic energy:        -142.80447773 Ha       -3885.90755195 eV
  | Hartree energy correction     :           0.00000000 Ha           0.00000000 eV
  | van der Waals energy corr.    :           0.00000000 Ha           0.00000000 eV
  | Entropy correction            :          -0.00010367 Ha          -0.00282095 eV
  | ---------------------------
  | Total energy                  :        -306.91862497 Ha       -8351.68071429 eV
  | Total energy, T -> 0          :        -306.91872864 Ha       -8351.68353523 eV  <-- do not rely on this value for anything but (periodic) metals
  | Electronic free energy        :        -306.91883231 Ha       -8351.68635618 eV

  Derived energy quantities:
  | Kinetic energy                :         304.02832514 Ha        8273.03165427 eV
  | Electrostatic energy          :        -574.12101071 Ha      -15622.62757197 eV
  | Energy correction for multipole
  | error in Hartree potential    :           0.00000000 Ha           0.00000000 eV
  | Sum of eigenvalues per atom                           :        -364.95763174 eV
  | Total energy (T->0) per atom                          :        -642.43719502 eV  <-- do not rely on this value for anything but (periodic) metals
  | Electronic free energy per atom                       :        -642.43741201 eV
  Initialize hartree_potential_storage
  Max. number of atoms included in rho_multipole:           13

  End scf initialization - timings             :  max(cpu_time)    wall_clock(cpu1)
  | Time for scf. initialization               :        1.439 s           1.439 s
  | Boundary condition initialization          :        0.000 s           0.000 s
  | Integration                                :        1.022 s           1.022 s
  | Solution of K.-S. eqns.                    :        0.135 s           0.136 s
  | Grid partitioning                          :        0.116 s           0.115 s
  | Preloading free-atom quantities on grid    :        0.013 s           0.013 s
  | Free-atom superposition energy             :        0.052 s           0.052 s
  | Total energy evaluation                    :        0.000 s           0.000 s
------------------------------------------------------------

------------------------------------------------------------
          Begin self-consistency iteration #    1

  Date     :  20150727, Time     :  125148.011
------------------------------------------------------------
  Evaluating new KS density.
  Integration grid: deviation in total charge (<rho> - N_e) =   0.000000E+00
  Pulay mixing of updated and previous charge densities.

  Evaluating partitioned Hartree potential by multipole expansion.
  | Analytical far-field extrapolation by fixed multipoles:
  | Hartree multipole sum: apparent total charge =  -0.727653E-06
  Summing up the Hartree potential.
  Time summed over all CPUs for potential: real work        1.922 s, elapsed        1.935 s
  | RMS charge density error from multipole expansion :   0.150163E-02

  Integrating Hamiltonian matrix: batch-based integration.
  Time summed over all CPUs for integration: real work        5.223 s, elapsed        5.319 s

  Updating Kohn-Sham eigenvalues, eigenvectors, occupation numbers, and Fermi level.
  Solving generalized eigenproblem
  Updating Kohn-Sham eigenvalues and eigenfunctions.
  Solving real generalised eigenvalue problem by standard LAPACK (fast)
  Determining occupation numbers for Kohn-Sham eigenstates.
  | Chemical potential (Fermi level) in eV                 : -.25641231E+01
  | Error in electron count due to remaining E_F inaccuracy: 0.59685590E-12
  | Maximum occupation number of highest empty state:  0.00E+00

  Writing Kohn-Sham eigenvalues.

  State    Occupation    Eigenvalue [Ha]    Eigenvalue [eV]
      1       2.00000         -19.017143         -517.48278
      2       2.00000         -18.993179         -516.83070
      3       2.00000         -18.975681         -516.35456
      4       2.00000         -18.958676         -515.89182
      5       2.00000          -1.102971          -30.01338
      6       2.00000          -1.083029          -29.47072
      7       2.00000          -1.057154          -28.76661
      8       2.00000          -1.042940          -28.37984
      9       2.00000          -0.623778          -16.97386
     10       2.00000          -0.610822          -16.62133
     11       2.00000          -0.600561          -16.34209
     12       2.00000          -0.586103          -15.94867
     13       2.00000          -0.575926          -15.67174
     14       2.00000          -0.499703          -13.59762
     15       2.00000          -0.481380          -13.09902
     16       2.00000          -0.462783          -12.59297
     17       2.00000          -0.455290          -12.38907
     18       2.00000          -0.418447          -11.38652
     19       2.00000          -0.402801          -10.96077
     20       2.00000          -0.383260          -10.42904
     21       1.00000          -0.094230           -2.56412
     22       0.00000          -0.067015           -1.82357
     23       0.00000          -0.037744           -1.02708
     24       0.00000          -0.033530           -0.91240
     25       0.00000          -0.015695           -0.42709
     26       0.00000           0.002367            0.06441
     27       0.00000           0.043648            1.18772
     28       0.00000           0.050868            1.38419
     29       0.00000           0.051956            1.41381
     30       0.00000           0.076590            2.08413
     31       0.00000           0.082130            2.23487
     32       0.00000           0.090397            2.45983
     33       0.00000           0.095608            2.60162
     34       0.00000           0.109443            2.97810
     35       0.00000           0.110661            3.01125
     36       0.00000           0.120888            3.28954
     37       0.00000           0.129959            3.53638
     38       0.00000           0.140042            3.81073
     39       0.00000           0.146039            3.97394
     40       0.00000           0.164857            4.48597
     41       0.00000           0.172091            4.68284
     42       0.00000           0.184973            5.03337
     43       0.00000           0.200093            5.44481
     44       0.00000           0.228532            6.21868
     45       0.00000           0.234548            6.38239
     46       0.00000           0.251659            6.84798
     47       0.00000           0.262270            7.13672
     48       0.00000           0.286566            7.79785
     49       0.00000           0.292755            7.96627
     50       0.00000           0.322424            8.77360
     51       0.00000           0.339394            9.23538
     52       0.00000           0.356366            9.69722
     53       0.00000           0.368938           10.03932
     54       0.00000           0.378007           10.28609
     55       0.00000           0.383132           10.42555
     56       0.00000           0.399546           10.87221
     57       0.00000           0.413063           11.24001
     58       0.00000           0.435046           11.83821
     59       0.00000           0.455685           12.39982
     60       0.00000           0.462877           12.59552
     61       0.00000           0.481320           13.09739
     62       0.00000           0.492878           13.41188
     63       0.00000           0.497862           13.54752
     64       0.00000           0.523402           14.24251
     65       0.00000           0.559665           15.22925
     66       0.00000           0.587410           15.98425
     67       0.00000           0.589359           16.03727
     68       0.00000           0.640051           17.41667
     69       0.00000           0.682289           18.56603
     70       0.00000           0.696081           18.94133
     71       0.00000           0.732180           19.92364
     72       0.00000           0.753614           20.50687
     73       0.00000           0.782356           21.28898

  Highest occupied state (VBM) at     -2.56412315 eV
  | Occupation number:      1.00000000

  Lowest unoccupied state (CBM) at    -1.82357078 eV
  | Occupation number:      0.00000000

  Overall HOMO-LUMO gap:      0.74055236 eV.

  Total energy components:
  | Sum of eigenvalues            :        -172.75748363 Ha       -4700.97031233 eV
  | XC energy correction          :         -36.99870708 Ha       -1006.78604431 eV
  | XC potential correction       :          47.29264188 Ha        1286.89826216 eV
  | Free-atom electrostatic energy:        -142.80447773 Ha       -3885.90755195 eV
  | Hartree energy correction     :          -1.55573007 Ha         -42.33356911 eV
  | van der Waals energy corr.    :           0.00000000 Ha           0.00000000 eV
  | Entropy correction            :          -0.00010367 Ha          -0.00282095 eV
  | ---------------------------
  | Total energy                  :        -306.82375664 Ha       -8349.09921554 eV
  | Total energy, T -> 0          :        -306.82386030 Ha       -8349.10203648 eV  <-- do not rely on this value for anything but (periodic) metals
  | Electronic free energy        :        -306.82396397 Ha       -8349.10485743 eV

  Derived energy quantities:
  | Kinetic energy                :         305.09100462 Ha        8301.94863410 eV
  | Electrostatic energy          :        -574.91605417 Ha      -15644.26180533 eV
  | Energy correction for multipole
  | error in Hartree potential    :           0.00038403 Ha           0.01044990 eV
  | Sum of eigenvalues per atom                           :        -361.61310095 eV
  | Total energy (T->0) per atom                          :        -642.23861819 eV  <-- do not rely on this value for anything but (periodic) metals
  | Electronic free energy per atom                       :        -642.23883519 eV

  Self-consistency convergence accuracy:
  | Change of charge density      : 0.5625E+00
  | Change of sum of eigenvalues  : 0.4348E+02 eV
  | Change of total energy        : 0.2581E+01 eV

  End self-consistency iteration #     1       :  max(cpu_time)    wall_clock(cpu1)
  | Time for this iteration                    :        1.420 s           1.420 s
  | Charge density update                      :        0.467 s           0.467 s
  | Density mixing                             :        0.003 s           0.003 s
  | Hartree multipole update                   :        0.005 s           0.005 s
  | Hartree multipole summation                :        0.242 s           0.242 s
  | Integration                                :        0.666 s           0.666 s
  | Solution of K.-S. eqns.                    :        0.036 s           0.036 s
  | Total energy evaluation                    :        0.000 s           0.000 s
------------------------------------------------------------

------------------------------------------------------------
          Begin self-consistency iteration #    2

  Date     :  20150727, Time     :  125149.431
------------------------------------------------------------
  Evaluating new KS density.
  Integration grid: deviation in total charge (<rho> - N_e) =   6.039613E-13
  Pulay mixing of updated and previous charge densities.

  Evaluating partitioned Hartree potential by multipole expansion.
  | Analytical far-field extrapolation by fixed multipoles:
  | Hartree multipole sum: apparent total charge =  -0.339041E-05
  Summing up the Hartree potential.
  Time summed over all CPUs for potential: real work        1.921 s, elapsed        1.933 s
  | RMS charge density error from multipole expansion :   0.608911E-02

  Integrating Hamiltonian matrix: batch-based integration.
  Time summed over all CPUs for integration: real work        5.206 s, elapsed        5.316 s

  Updating Kohn-Sham eigenvalues, eigenvectors, occupation numbers, and Fermi level.
  Solving generalized eigenproblem
  Updating Kohn-Sham eigenvalues and eigenfunctions.
  Solving real generalised eigenvalue problem by standard LAPACK (fast)
  Determining occupation numbers for Kohn-Sham eigenstates.
  | Chemical potential (Fermi level) in eV                 : -.22085716E+01
  | Error in electron count due to remaining E_F inaccuracy: 0.00000000E+00
  | Maximum occupation number of highest empty state:  0.00E+00

  Highest occupied state (VBM) at     -2.20857157 eV
  | Occupation number:      1.00000000

  Lowest unoccupied state (CBM) at    -2.20857157 eV
  | Occupation number:      1.00000000

  Overall HOMO-LUMO gap:      0.00000000 eV.

  Total energy components:
  | Sum of eigenvalues            :        -168.95140611 Ha       -4597.40167353 eV
  | XC energy correction          :         -37.43282917 Ha       -1018.59910734 eV
  | XC potential correction       :          47.85802261 Ha        1302.28305457 eV
  | Free-atom electrostatic energy:        -142.80447773 Ha       -3885.90755195 eV
  | Hartree energy correction     :          -5.38647487 Ha        -146.57343889 eV
  | van der Waals energy corr.    :           0.00000000 Ha           0.00000000 eV
  | Entropy correction            :          -0.00010367 Ha          -0.00282095 eV
  | ---------------------------
  | Total energy                  :        -306.71716528 Ha       -8346.19871713 eV
  | Total energy, T -> 0          :        -306.71726895 Ha       -8346.20153808 eV  <-- do not rely on this value for anything but (periodic) metals
  | Electronic free energy        :        -306.71737261 Ha       -8346.20435903 eV

  Derived energy quantities:
  | Kinetic energy                :         307.30210584 Ha        8362.11575981 eV
  | Electrostatic energy          :        -576.58644196 Ha      -15689.71536960 eV
  | Energy correction for multipole
  | error in Hartree potential    :           0.00091077 Ha           0.02478339 eV
  | Sum of eigenvalues per atom                           :        -353.64628258 eV
  | Total energy (T->0) per atom                          :        -642.01550293 eV  <-- do not rely on this value for anything but (periodic) metals
  | Electronic free energy per atom                       :        -642.01571993 eV

  Self-consistency convergence accuracy:
  | Change of charge density      : 0.4277E+00
  | Change of sum of eigenvalues  : 0.1036E+03 eV
  | Change of total energy        : 0.2900E+01 eV

  End self-consistency iteration #     2       :  max(cpu_time)    wall_clock(cpu1)
  | Time for this iteration                    :        1.418 s           1.418 s
  | Charge density update                      :        0.465 s           0.465 s
  | Density mixing                             :        0.005 s           0.005 s
  | Hartree multipole update                   :        0.004 s           0.004 s
  | Hartree multipole summation                :        0.243 s           0.243 s
  | Integration                                :        0.665 s           0.665 s
  | Solution of K.-S. eqns.                    :        0.036 s           0.036 s
  | Total energy evaluation                    :        0.000 s           0.000 s
------------------------------------------------------------

------------------------------------------------------------
          Begin self-consistency iteration #    3

  Date     :  20150727, Time     :  125150.849
------------------------------------------------------------
  Evaluating new KS density.
  Integration grid: deviation in total charge (<rho> - N_e) =   1.421085E-14
  Pulay mixing of updated and previous charge densities.

  Evaluating partitioned Hartree potential by multipole expansion.
  | Analytical far-field extrapolation by fixed multipoles:
  | Hartree multipole sum: apparent total charge =  -0.391082E-05
  Summing up the Hartree potential.
  Time summed over all CPUs for potential: real work        1.921 s, elapsed        1.934 s
  | RMS charge density error from multipole expansion :   0.114983E-01

  Integrating Hamiltonian matrix: batch-based integration.
  Time summed over all CPUs for integration: real work        5.208 s, elapsed        5.298 s

  Updating Kohn-Sham eigenvalues, eigenvectors, occupation numbers, and Fermi level.
  Solving generalized eigenproblem
  Updating Kohn-Sham eigenvalues and eigenfunctions.
  Solving real generalised eigenvalue problem by standard LAPACK (fast)
  Determining occupation numbers for Kohn-Sham eigenstates.
  | Chemical potential (Fermi level) in eV                 : -.21648179E+01
  | Error in electron count due to remaining E_F inaccuracy: 0.00000000E+00
  | Maximum occupation number of highest empty state:  0.00E+00

  Highest occupied state (VBM) at     -2.16481794 eV
  | Occupation number:      1.00000000

  Lowest unoccupied state (CBM) at    -2.16481794 eV
  | Occupation number:      1.00000000

  Overall HOMO-LUMO gap:      0.00000000 eV.

  Total energy components:
  | Sum of eigenvalues            :        -169.09636334 Ha       -4601.34616046 eV
  | XC energy correction          :         -37.43776961 Ha       -1018.73354380 eV
  | XC potential correction       :          47.85849468 Ha        1302.29590028 eV
  | Free-atom electrostatic energy:        -142.80447773 Ha       -3885.90755195 eV
  | Hartree energy correction     :          -5.23465515 Ha        -142.44221409 eV
  | van der Waals energy corr.    :           0.00000000 Ha           0.00000000 eV
  | Entropy correction            :          -0.00010367 Ha          -0.00282095 eV
  | ---------------------------
  | Total energy                  :        -306.71477117 Ha       -8346.13357001 eV
  | Total energy, T -> 0          :        -306.71487483 Ha       -8346.13639096 eV  <-- do not rely on this value for anything but (periodic) metals
  | Electronic free energy        :        -306.71497850 Ha       -8346.13921191 eV

  Derived energy quantities:
  | Kinetic energy                :         306.18709995 Ha        8331.77490570 eV
  | Electrostatic energy          :        -575.46410150 Ha      -15659.17493191 eV
  | Energy correction for multipole
  | error in Hartree potential    :          -0.00110383 Ha          -0.03003661 eV
  | Sum of eigenvalues per atom                           :        -353.94970465 eV
  | Total energy (T->0) per atom                          :        -642.01049161 eV  <-- do not rely on this value for anything but (periodic) metals
  | Electronic free energy per atom                       :        -642.01070861 eV

  Self-consistency convergence accuracy:
  | Change of charge density      : 0.2093E+00
  | Change of sum of eigenvalues  : -.3944E+01 eV
  | Change of total energy        : 0.6515E-01 eV

  End self-consistency iteration #     3       :  max(cpu_time)    wall_clock(cpu1)
  | Time for this iteration                    :        1.412 s           1.412 s
  | Charge density update                      :        0.460 s           0.460 s
  | Density mixing                             :        0.006 s           0.005 s
  | Hartree multipole update                   :        0.004 s           0.005 s
  | Hartree multipole summation                :        0.243 s           0.242 s
  | Integration                                :        0.663 s           0.664 s
  | Solution of K.-S. eqns.                    :        0.036 s           0.035 s
  | Total energy evaluation                    :        0.000 s           0.001 s
------------------------------------------------------------

------------------------------------------------------------
          Begin self-consistency iteration #    4

  Date     :  20150727, Time     :  125152.261
------------------------------------------------------------
  Evaluating new KS density.
  Integration grid: deviation in total charge (<rho> - N_e) =   1.421085E-14
  Pulay mixing of updated and previous charge densities.

  Evaluating partitioned Hartree potential by multipole expansion.
  | Analytical far-field extrapolation by fixed multipoles:
  | Hartree multipole sum: apparent total charge =  -0.479985E-05
  Summing up the Hartree potential.
  Time summed over all CPUs for potential: real work        1.920 s, elapsed        1.933 s
  | RMS charge density error from multipole expansion :   0.161824E-01

  Integrating Hamiltonian matrix: batch-based integration.
  Time summed over all CPUs for integration: real work        5.204 s, elapsed        5.314 s

  Updating Kohn-Sham eigenvalues, eigenvectors, occupation numbers, and Fermi level.
  Solving generalized eigenproblem
  Updating Kohn-Sham eigenvalues and eigenfunctions.
  Solving real generalised eigenvalue problem by standard LAPACK (fast)
  Determining occupation numbers for Kohn-Sham eigenstates.
  | Chemical potential (Fermi level) in eV                 : -.20943309E+01
  | Error in electron count due to remaining E_F inaccuracy: 0.00000000E+00
  | Maximum occupation number of highest empty state:  0.00E+00

  Highest occupied state (VBM) at     -2.09433089 eV
  | Occupation number:      1.00000000

  Lowest unoccupied state (CBM) at    -2.09433089 eV
  | Occupation number:      1.00000000

  Overall HOMO-LUMO gap:      0.00000000 eV.

  Total energy components:
  | Sum of eigenvalues            :        -168.20264264 Ha       -4577.02678286 eV
  | XC energy correction          :         -37.56995876 Ha       -1022.33059338 eV
  | XC potential correction       :          48.02721551 Ha        1306.88702768 eV
  | Free-atom electrostatic energy:        -142.80447773 Ha       -3885.90755195 eV
  | Hartree energy correction     :          -6.16219863 Ha        -167.68195625 eV
  | van der Waals energy corr.    :           0.00000000 Ha           0.00000000 eV
  | Entropy correction            :          -0.00010367 Ha          -0.00282095 eV
  | ---------------------------
  | Total energy                  :        -306.71206225 Ha       -8346.05985676 eV
  | Total energy, T -> 0          :        -306.71216592 Ha       -8346.06267771 eV  <-- do not rely on this value for anything but (periodic) metals
  | Electronic free energy        :        -306.71226959 Ha       -8346.06549866 eV

  Derived energy quantities:
  | Kinetic energy                :         306.03503379 Ha        8327.63697485 eV
  | Electrostatic energy          :        -575.17713728 Ha      -15651.36623823 eV
  | Energy correction for multipole
  | error in Hartree potential    :          -0.00237207 Ha          -0.06454724 eV
  | Sum of eigenvalues per atom                           :        -352.07898330 eV
  | Total energy (T->0) per atom                          :        -642.00482136 eV  <-- do not rely on this value for anything but (periodic) metals
  | Electronic free energy per atom                       :        -642.00503836 eV

  Self-consistency convergence accuracy:
  | Change of charge density      : 0.9913E-01
  | Change of sum of eigenvalues  : 0.2432E+02 eV
  | Change of total energy        : 0.7371E-01 eV

  End self-consistency iteration #     4       :  max(cpu_time)    wall_clock(cpu1)
  | Time for this iteration                    :        1.416 s           1.416 s
  | Charge density update                      :        0.461 s           0.461 s
  | Density mixing                             :        0.007 s           0.007 s
  | Hartree multipole update                   :        0.005 s           0.004 s
  | Hartree multipole summation                :        0.242 s           0.242 s
  | Integration                                :        0.665 s           0.666 s
  | Solution of K.-S. eqns.                    :        0.036 s           0.035 s
  | Total energy evaluation                    :        0.000 s           0.001 s
------------------------------------------------------------

------------------------------------------------------------
          Begin self-consistency iteration #    5

  Date     :  20150727, Time     :  125153.677
------------------------------------------------------------
  Evaluating new KS density.
  Integration grid: deviation in total charge (<rho> - N_e) =  -7.105427E-15
  Pulay mixing of updated and previous charge densities.

  Evaluating partitioned Hartree potential by multipole expansion.
  | Analytical far-field extrapolation by fixed multipoles:
  | Hartree multipole sum: apparent total charge =  -0.469906E-05
  Summing up the Hartree potential.
  Time summed over all CPUs for potential: real work        1.921 s, elapsed        1.933 s
  | RMS charge density error from multipole expansion :   0.159644E-01

  Integrating Hamiltonian matrix: batch-based integration.
  Time summed over all CPUs for integration: real work        5.206 s, elapsed        5.316 s

  Updating Kohn-Sham eigenvalues, eigenvectors, occupation numbers, and Fermi level.
  Solving generalized eigenproblem
  Updating Kohn-Sham eigenvalues and eigenfunctions.
  Solving real generalised eigenvalue problem by standard LAPACK (fast)
  Determining occupation numbers for Kohn-Sham eigenstates.
  | Chemical potential (Fermi level) in eV                 : -.21390491E+01
  | Error in electron count due to remaining E_F inaccuracy: -.42083030E-08
  | Maximum occupation number of highest empty state:  0.00E+00

  Highest occupied state (VBM) at     -6.29120897 eV
  | Occupation number:      2.00000000

  Lowest unoccupied state (CBM) at    -2.13904911 eV
  | Occupation number:      1.00000000

  Overall HOMO-LUMO gap:      4.15215986 eV.

  Total energy components:
  | Sum of eigenvalues            :        -168.38136193 Ha       -4581.88998213 eV
  | XC energy correction          :         -37.54714259 Ha       -1021.70973390 eV
  | XC potential correction       :          47.99726093 Ha        1306.07192217 eV
  | Free-atom electrostatic energy:        -142.80447773 Ha       -3885.90755195 eV
  | Hartree energy correction     :          -5.97584962 Ha        -162.61114184 eV
  | van der Waals energy corr.    :           0.00000000 Ha           0.00000000 eV
  | Entropy correction            :          -0.00010367 Ha          -0.00282095 eV
  | ---------------------------
  | Total energy                  :        -306.71157095 Ha       -8346.04648764 eV
  | Total energy, T -> 0          :        -306.71167462 Ha       -8346.04930859 eV  <-- do not rely on this value for anything but (periodic) metals
  | Electronic free energy        :        -306.71177828 Ha       -8346.05212954 eV

  Derived energy quantities:
  | Kinetic energy                :         305.97960722 Ha        8326.12874113 eV
  | Electrostatic energy          :        -575.14403557 Ha      -15650.46549487 eV
  | Energy correction for multipole
  | error in Hartree potential    :          -0.00244796 Ha          -0.06661226 eV
  | Sum of eigenvalues per atom                           :        -352.45307555 eV
  | Total energy (T->0) per atom                          :        -642.00379297 eV  <-- do not rely on this value for anything but (periodic) metals
  | Electronic free energy per atom                       :        -642.00400996 eV

  Self-consistency convergence accuracy:
  | Change of charge density      : 0.2598E-01
  | Change of sum of eigenvalues  : -.4863E+01 eV
  | Change of total energy        : 0.1337E-01 eV

  End self-consistency iteration #     5       :  max(cpu_time)    wall_clock(cpu1)
  | Time for this iteration                    :        1.417 s           1.417 s
  | Charge density update                      :        0.459 s           0.459 s
  | Density mixing                             :        0.008 s           0.008 s
  | Hartree multipole update                   :        0.005 s           0.004 s
  | Hartree multipole summation                :        0.242 s           0.242 s
  | Integration                                :        0.666 s           0.665 s
  | Solution of K.-S. eqns.                    :        0.036 s           0.036 s
  | Total energy evaluation                    :        0.000 s           0.001 s
------------------------------------------------------------

------------------------------------------------------------
          Begin self-consistency iteration #    6

  Date     :  20150727, Time     :  125155.095
------------------------------------------------------------
  Evaluating new KS density.
  Integration grid: deviation in total charge (<rho> - N_e) =  -4.208268E-09
  Pulay mixing of updated and previous charge densities.

  Evaluating partitioned Hartree potential by multipole expansion.
  | Analytical far-field extrapolation by fixed multipoles:
  | Hartree multipole sum: apparent total charge =  -0.475377E-05
  Summing up the Hartree potential.
  Time summed over all CPUs for potential: real work        1.921 s, elapsed        1.933 s
  | RMS charge density error from multipole expansion :   0.162036E-01

  Integrating Hamiltonian matrix: batch-based integration.
  Time summed over all CPUs for integration: real work        5.204 s, elapsed        5.319 s

  Updating Kohn-Sham eigenvalues, eigenvectors, occupation numbers, and Fermi level.
  Solving generalized eigenproblem
  Updating Kohn-Sham eigenvalues and eigenfunctions.
  Solving real generalised eigenvalue problem by standard LAPACK (fast)
  Determining occupation numbers for Kohn-Sham eigenstates.
  | Chemical potential (Fermi level) in eV                 : -.21444736E+01
  | Error in electron count due to remaining E_F inaccuracy: 0.25153213E-11
  | Maximum occupation number of highest empty state:  0.00E+00

  Highest occupied state (VBM) at     -2.14447363 eV
  | Occupation number:      1.00000000

  Lowest unoccupied state (CBM) at    -1.33611950 eV
  | Occupation number:      0.00000000

  Overall HOMO-LUMO gap:      0.80835413 eV.

  Total energy components:
  | Sum of eigenvalues            :        -168.37511885 Ha       -4581.72009913 eV
  | XC energy correction          :         -37.54980918 Ha       -1021.78229537 eV
  | XC potential correction       :          48.00047034 Ha        1306.15925457 eV
  | Free-atom electrostatic energy:        -142.80447773 Ha       -3885.90755195 eV
  | Hartree energy correction     :          -5.98265923 Ha        -162.79644057 eV
  | van der Waals energy corr.    :           0.00000000 Ha           0.00000000 eV
  | Entropy correction            :          -0.00010367 Ha          -0.00282095 eV
  | ---------------------------
  | Total energy                  :        -306.71159464 Ha       -8346.04713246 eV
  | Total energy, T -> 0          :        -306.71169831 Ha       -8346.04995341 eV  <-- do not rely on this value for anything but (periodic) metals
  | Electronic free energy        :        -306.71180198 Ha       -8346.05277435 eV

  Derived energy quantities:
  | Kinetic energy                :         305.97802358 Ha        8326.08564821 eV
  | Electrostatic energy          :        -575.13980905 Ha      -15650.35048530 eV
  | Energy correction for multipole
  | error in Hartree potential    :          -0.00255516 Ha          -0.06952935 eV
  | Sum of eigenvalues per atom                           :        -352.44000763 eV
  | Total energy (T->0) per atom                          :        -642.00384257 eV  <-- do not rely on this value for anything but (periodic) metals
  | Electronic free energy per atom                       :        -642.00405957 eV

  Self-consistency convergence accuracy:
  | Change of charge density      : 0.9080E-02
  | Change of sum of eigenvalues  : 0.1699E+00 eV
  | Change of total energy        : -.6448E-03 eV

  End self-consistency iteration #     6       :  max(cpu_time)    wall_clock(cpu1)
  | Time for this iteration                    :        1.420 s           1.420 s
  | Charge density update                      :        0.461 s           0.460 s
  | Density mixing                             :        0.009 s           0.009 s
  | Hartree multipole update                   :        0.004 s           0.005 s
  | Hartree multipole summation                :        0.243 s           0.242 s
  | Integration                                :        0.666 s           0.666 s
  | Solution of K.-S. eqns.                    :        0.036 s           0.036 s
  | Total energy evaluation                    :        0.000 s           0.000 s
------------------------------------------------------------

------------------------------------------------------------
          Begin self-consistency iteration #    7

  Date     :  20150727, Time     :  125156.515
------------------------------------------------------------
  Evaluating new KS density.
  Integration grid: deviation in total charge (<rho> - N_e) =   2.522427E-12
  Pulay mixing of updated and previous charge densities.

  Evaluating partitioned Hartree potential by multipole expansion.
  | Analytical far-field extrapolation by fixed multipoles:
  | Hartree multipole sum: apparent total charge =  -0.466384E-05
  Summing up the Hartree potential.
  Time summed over all CPUs for potential: real work        1.921 s, elapsed        1.933 s
  | RMS charge density error from multipole expansion :   0.162859E-01

  Integrating Hamiltonian matrix: batch-based integration.
  Time summed over all CPUs for integration: real work        5.204 s, elapsed        5.310 s

  Updating Kohn-Sham eigenvalues, eigenvectors, occupation numbers, and Fermi level.
  Solving generalized eigenproblem
  Updating Kohn-Sham eigenvalues and eigenfunctions.
  Solving real generalised eigenvalue problem by standard LAPACK (fast)
  Determining occupation numbers for Kohn-Sham eigenstates.
  | Chemical potential (Fermi level) in eV                 : -.21498685E+01
  | Error in electron count due to remaining E_F inaccuracy: 0.00000000E+00
  | Maximum occupation number of highest empty state:  0.00E+00

  Highest occupied state (VBM) at     -2.14986855 eV
  | Occupation number:      1.00000000

  Lowest unoccupied state (CBM) at    -2.14986855 eV
  | Occupation number:      1.00000000

  Overall HOMO-LUMO gap:      0.00000000 eV.

  Total energy components:
  | Sum of eigenvalues            :        -168.40880512 Ha       -4582.63674921 eV
  | XC energy correction          :         -37.54720449 Ha       -1021.71141823 eV
  | XC potential correction       :          47.99689069 Ha        1306.06184743 eV
  | Free-atom electrostatic energy:        -142.80447773 Ha       -3885.90755195 eV
  | Hartree energy correction     :          -5.94798686 Ha        -161.85295752 eV
  | van der Waals energy corr.    :           0.00000000 Ha           0.00000000 eV
  | Entropy correction            :          -0.00010367 Ha          -0.00282095 eV
  | ---------------------------
  | Total energy                  :        -306.71158351 Ha       -8346.04682948 eV
  | Total energy, T -> 0          :        -306.71168718 Ha       -8346.04965043 eV  <-- do not rely on this value for anything but (periodic) metals
  | Electronic free energy        :        -306.71179085 Ha       -8346.05247138 eV

  Derived energy quantities:
  | Kinetic energy                :         306.00398367 Ha        8326.79205817 eV
  | Electrostatic energy          :        -575.16836269 Ha      -15651.12746942 eV
  | Energy correction for multipole
  | error in Hartree potential    :          -0.00263201 Ha          -0.07162063 eV
  | Sum of eigenvalues per atom                           :        -352.51051917 eV
  | Total energy (T->0) per atom                          :        -642.00381926 eV  <-- do not rely on this value for anything but (periodic) metals
  | Electronic free energy per atom                       :        -642.00403626 eV

  Self-consistency convergence accuracy:
  | Change of charge density      : 0.6335E-02
  | Change of sum of eigenvalues  : -.9167E+00 eV
  | Change of total energy        : 0.3030E-03 eV

  End self-consistency iteration #     7       :  max(cpu_time)    wall_clock(cpu1)
  | Time for this iteration                    :        1.420 s           1.420 s
  | Charge density update                      :        0.460 s           0.460 s
  | Density mixing                             :        0.010 s           0.010 s
  | Hartree multipole update                   :        0.005 s           0.005 s
  | Hartree multipole summation                :        0.242 s           0.242 s
  | Integration                                :        0.665 s           0.665 s
  | Solution of K.-S. eqns.                    :        0.036 s           0.036 s
  | Total energy evaluation                    :        0.000 s           0.000 s
------------------------------------------------------------

------------------------------------------------------------
          Begin self-consistency iteration #    8

  Date     :  20150727, Time     :  125157.935
------------------------------------------------------------
  Evaluating new KS density.
  Integration grid: deviation in total charge (<rho> - N_e) =   7.105427E-15
  Pulay mixing of updated and previous charge densities.

  Evaluating partitioned Hartree potential by multipole expansion.
  | Analytical far-field extrapolation by fixed multipoles:
  | Hartree multipole sum: apparent total charge =  -0.463933E-05
  Summing up the Hartree potential.
  Time summed over all CPUs for potential: real work        1.920 s, elapsed        1.930 s
  | RMS charge density error from multipole expansion :   0.163038E-01

  Integrating Hamiltonian matrix: batch-based integration.
  Time summed over all CPUs for integration: real work        5.199 s, elapsed        5.306 s

  Updating Kohn-Sham eigenvalues, eigenvectors, occupation numbers, and Fermi level.
  Solving generalized eigenproblem
  Updating Kohn-Sham eigenvalues and eigenfunctions.
  Solving real generalised eigenvalue problem by standard LAPACK (fast)
  Determining occupation numbers for Kohn-Sham eigenstates.
  | Chemical potential (Fermi level) in eV                 : -.21581334E+01
  | Error in electron count due to remaining E_F inaccuracy: 0.00000000E+00
  | Maximum occupation number of highest empty state:  0.00E+00

  Highest occupied state (VBM) at     -2.15813337 eV
  | Occupation number:      1.00000000

  Lowest unoccupied state (CBM) at    -2.15813337 eV
  | Occupation number:      1.00000000

  Overall HOMO-LUMO gap:      0.00000000 eV.

  Total energy components:
  | Sum of eigenvalues            :        -168.43984947 Ha       -4583.48150895 eV
  | XC energy correction          :         -37.54431737 Ha       -1021.63285569 eV
  | XC potential correction       :          47.99302886 Ha        1305.95676173 eV
  | Free-atom electrostatic energy:        -142.80447773 Ha       -3885.90755195 eV
  | Hartree energy correction     :          -5.91596356 Ha        -160.98155900 eV
  | van der Waals energy corr.    :           0.00000000 Ha           0.00000000 eV
  | Entropy correction            :          -0.00010367 Ha          -0.00282095 eV
  | ---------------------------
  | Total energy                  :        -306.71157926 Ha       -8346.04671385 eV
  | Total energy, T -> 0          :        -306.71168293 Ha       -8346.04953480 eV  <-- do not rely on this value for anything but (periodic) metals
  | Electronic free energy        :        -306.71178660 Ha       -8346.05235575 eV

  Derived energy quantities:
  | Kinetic energy                :         306.01519767 Ha        8327.09720672 eV
  | Electrostatic energy          :        -575.18245957 Ha      -15651.51106488 eV
  | Energy correction for multipole
  | error in Hartree potential    :          -0.00268313 Ha          -0.07301158 eV
  | Sum of eigenvalues per atom                           :        -352.57550069 eV
  | Total energy (T->0) per atom                          :        -642.00381037 eV  <-- do not rely on this value for anything but (periodic) metals
  | Electronic free energy per atom                       :        -642.00402737 eV

  Self-consistency convergence accuracy:
  | Change of charge density      : 0.3017E-02
  | Change of sum of eigenvalues  : -.8448E+00 eV
  | Change of total energy        : 0.1156E-03 eV

  End self-consistency iteration #     8       :  max(cpu_time)    wall_clock(cpu1)
  | Time for this iteration                    :        1.420 s           1.420 s
  | Charge density update                      :        0.460 s           0.459 s
  | Density mixing                             :        0.011 s           0.011 s
  | Hartree multipole update                   :        0.005 s           0.005 s
  | Hartree multipole summation                :        0.242 s           0.242 s
  | Integration                                :        0.665 s           0.664 s
  | Solution of K.-S. eqns.                    :        0.035 s           0.036 s
  | Total energy evaluation                    :        0.000 s           0.000 s
------------------------------------------------------------

------------------------------------------------------------
          Begin self-consistency iteration #    9

  Date     :  20150727, Time     :  125159.355
------------------------------------------------------------
  Evaluating new KS density.
  Integration grid: deviation in total charge (<rho> - N_e) =   2.842171E-14
  Pulay mixing of updated and previous charge densities.

  Evaluating partitioned Hartree potential by multipole expansion.
  | Analytical far-field extrapolation by fixed multipoles:
  | Hartree multipole sum: apparent total charge =  -0.463197E-05
  Summing up the Hartree potential.
  Time summed over all CPUs for potential: real work        1.920 s, elapsed        1.931 s
  | RMS charge density error from multipole expansion :   0.163040E-01

  Integrating Hamiltonian matrix: batch-based integration.
  Time summed over all CPUs for integration: real work        5.207 s, elapsed        5.307 s

  Updating Kohn-Sham eigenvalues, eigenvectors, occupation numbers, and Fermi level.
  Solving generalized eigenproblem
  Updating Kohn-Sham eigenvalues and eigenfunctions.
  Solving real generalised eigenvalue problem by standard LAPACK (fast)
  Determining occupation numbers for Kohn-Sham eigenstates.
  | Chemical potential (Fermi level) in eV                 : -.21596794E+01
  | Error in electron count due to remaining E_F inaccuracy: 0.21517934E-08
  | Maximum occupation number of highest empty state:  0.00E+00

  Highest occupied state (VBM) at     -2.15967939 eV
  | Occupation number:      1.00000000

  Lowest unoccupied state (CBM) at    -1.35510470 eV
  | Occupation number:      0.00000000

  Overall HOMO-LUMO gap:      0.80457469 eV.

  Total energy components:
  | Sum of eigenvalues            :        -168.44000231 Ha       -4583.48566801 eV
  | XC energy correction          :         -37.54436806 Ha       -1021.63423519 eV
  | XC potential correction       :          47.99309037 Ha        1305.95843527 eV
  | Free-atom electrostatic energy:        -142.80447773 Ha       -3885.90755195 eV
  | Hartree energy correction     :          -5.91582105 Ha        -160.97768134 eV
  | van der Waals energy corr.    :           0.00000000 Ha           0.00000000 eV
  | Entropy correction            :          -0.00010367 Ha          -0.00282095 eV
  | ---------------------------
  | Total energy                  :        -306.71157880 Ha       -8346.04670122 eV
  | Total energy, T -> 0          :        -306.71168246 Ha       -8346.04952217 eV  <-- do not rely on this value for anything but (periodic) metals
  | Electronic free energy        :        -306.71178613 Ha       -8346.05234311 eV

  Derived energy quantities:
  | Kinetic energy                :         306.01770135 Ha        8327.16533537 eV
  | Electrostatic energy          :        -575.18491209 Ha      -15651.57780140 eV
  | Energy correction for multipole
  | error in Hartree potential    :          -0.00268941 Ha          -0.07318262 eV
  | Sum of eigenvalues per atom                           :        -352.57582062 eV
  | Total energy (T->0) per atom                          :        -642.00380940 eV  <-- do not rely on this value for anything but (periodic) metals
  | Electronic free energy per atom                       :        -642.00402639 eV

  Self-consistency convergence accuracy:
  | Change of charge density      : 0.9352E-03
  | Change of sum of eigenvalues  : -.4159E-02 eV
  | Change of total energy        : 0.1264E-04 eV

  End self-consistency iteration #     9       :  max(cpu_time)    wall_clock(cpu1)
  | Time for this iteration                    :        1.421 s           1.421 s
  | Charge density update                      :        0.460 s           0.459 s
  | Density mixing                             :        0.013 s           0.013 s
  | Hartree multipole update                   :        0.004 s           0.005 s
  | Hartree multipole summation                :        0.242 s           0.242 s
  | Integration                                :        0.665 s           0.664 s
  | Solution of K.-S. eqns.                    :        0.036 s           0.036 s
  | Total energy evaluation                    :        0.000 s           0.000 s
------------------------------------------------------------

------------------------------------------------------------
          Begin self-consistency iteration #   10

  Date     :  20150727, Time     :  125200.776
------------------------------------------------------------
  Evaluating new KS density.
  Integration grid: deviation in total charge (<rho> - N_e) =   2.151772E-09
[...]
  | Electronic free energy        :        -306.71385654 Ha       -8346.10868192 eV

  Derived energy quantities:
  | Kinetic energy                :         306.01996300 Ha        8327.22687794 eV
  | Electrostatic energy          :        -575.18722082 Ha      -15651.64062530 eV
  | Energy correction for multipole
  | error in Hartree potential    :          -0.00270921 Ha          -0.07372129 eV
  | Sum of eigenvalues per atom                           :        -352.57968926 eV
  | Total energy (T->0) per atom                          :        -642.00814315 eV  <-- do not rely on this value for anything but (periodic) metals
  | Electronic free energy per atom                       :        -642.00836015 eV

  atomic forces [eV/Ang]:
  -----------------------
  atom #    1
   Hellmann-Feynman + Multipole  : -.184420E+01 -.835975E+01 -.730127E+01
   Pulay + GGA                   : 0.146877E+01 0.894954E+01 0.706260E+01
   Van der Waals               : 0.333928E-02 -.215972E-02 0.461093E-02
   ----------------------------------------------------------------
   Total forces(   1)            : -.372096E+00 0.587623E+00 -.234059E+00
  atom #    2
   Hellmann-Feynman + Multipole  : -.448665E-02 -.224901E+00 0.667661E-01
   Pulay + GGA                   : -.267868E-01 0.581401E-01 -.345219E-01
   Van der Waals               : -.372877E-03 0.224790E-02 0.157367E-02
   ----------------------------------------------------------------
   Total forces(   2)            : -.316463E-01 -.164513E+00 0.338179E-01
  atom #    3
   Hellmann-Feynman + Multipole  : -.498883E-01 -.984085E-01 0.880285E-01
   Pulay + GGA                   : 0.173727E+00 0.652508E-01 0.783996E-02
   Van der Waals               : 0.249300E-02 -.204416E-02 0.214841E-02
   ----------------------------------------------------------------
   Total forces(   3)            : 0.126332E+00 -.352018E-01 0.980169E-01
  atom #    4
   Hellmann-Feynman + Multipole  : 0.139599E+00 0.271858E-01 -.166675E+00
   Pulay + GGA                   : -.490520E-01 -.406911E-01 0.151974E+00
   Van der Waals               : 0.634942E-03 0.231154E-02 0.198097E-02
   ----------------------------------------------------------------
   Total forces(   4)            : 0.911821E-01 -.111937E-01 -.127199E-01
  atom #    5
   Hellmann-Feynman + Multipole  : -.631773E+01 -.670834E+01 0.888338E+01
   Pulay + GGA                   : 0.672942E+01 0.580091E+01 -.625129E+01
   Van der Waals               : -.622661E-02 0.275023E-02 -.106980E-02
   ----------------------------------------------------------------
   Total forces(   5)            : 0.405462E+00 -.904687E+00 0.263102E+01
  atom #    6
   Hellmann-Feynman + Multipole  : 0.110881E-01 0.154246E+00 0.172456E+00
   Pulay + GGA                   : 0.498096E-01 0.754754E-01 0.104646E-01
   Van der Waals               : -.308529E-02 0.618266E-02 -.247752E-02
   ----------------------------------------------------------------
   Total forces(   6)            : 0.578124E-01 0.235905E+00 0.180443E+00
  atom #    7
   Hellmann-Feynman + Multipole  : -.312422E+00 0.302089E+00 -.256711E+01
   Pulay + GGA                   : -.240287E-01 0.222419E-01 -.122468E+00
   Van der Waals               : -.132486E-02 0.463655E-02 0.252340E-03
   ----------------------------------------------------------------
   Total forces(   7)            : -.337775E+00 0.328968E+00 -.268933E+01
  atom #    8
   Hellmann-Feynman + Multipole  : -.108915E+02 -.301490E+01 0.779512E+00
   Pulay + GGA                   : 0.116786E+02 0.429214E+01 -.150767E+01
   Van der Waals               : 0.253648E-02 -.227008E-02 0.119238E-02
   ----------------------------------------------------------------
   Total forces(   8)            : 0.789625E+00 0.127497E+01 -.726962E+00
  atom #    9
   Hellmann-Feynman + Multipole  : -.118892E+00 -.202147E+00 0.725575E-01
   Pulay + GGA                   : 0.130397E+00 -.656740E-01 0.209584E-01
   Van der Waals               : 0.268035E-02 0.620904E-03 0.443350E-04
   ----------------------------------------------------------------
   Total forces(   9)            : 0.141850E-01 -.267200E+00 0.935602E-01
  atom #   10
   Hellmann-Feynman + Multipole  : -.630555E+00 -.108494E+01 0.501143E+00
   Pulay + GGA                   : 0.449505E-01 0.106262E+00 -.712617E-01
   Van der Waals               : -.194237E-02 -.402486E-02 0.252086E-03
   ----------------------------------------------------------------
   Total forces(  10)            : -.587547E+00 -.982699E+00 0.430133E+00
  atom #   11
   Hellmann-Feynman + Multipole  : 0.132205E+01 -.154017E+02 0.180941E+01
   Pulay + GGA                   : -.316781E+00 0.155245E+02 -.320819E+01
   Van der Waals               : -.160544E-02 -.425854E-02 -.325121E-02
   ----------------------------------------------------------------
   Total forces(  11)            : 0.100366E+01 0.118516E+00 -.140203E+01
  atom #   12
   Hellmann-Feynman + Multipole  : -.267746E+00 0.468924E+00 0.255497E+00
   Pulay + GGA                   : -.703772E-01 0.944007E-01 0.819041E-01
   Van der Waals               : 0.338955E-02 -.918038E-03 -.467579E-02
   ----------------------------------------------------------------
   Total forces(  12)            : -.334733E+00 0.562406E+00 0.332726E+00
  atom #   13
   Hellmann-Feynman + Multipole  : -.849238E+00 -.800933E+00 0.132819E+01
   Pulay + GGA                   : 0.337657E-01 0.643184E-01 -.692465E-01
   Van der Waals               : -.516171E-03 -.307439E-02 -.580794E-03
   ----------------------------------------------------------------
   Total forces(  13)            : -.815988E+00 -.739689E+00 0.125836E+01
  Timings for vdw_correction_hirshfeld (Tkatchenko-Scheffler 2009):
  | CPU time:        3.802 s, Wall clock time:        3.804 s.
  Removing unitary transformations (pure translations, rotations) from forces on atoms.
  Atomic forces before filtering:
  | Net force on center of mass :  0.847489E-02 0.320273E-02 -.702870E-02 eV/A
  | Net torque on center of mass:  -.957416E-02 0.165616E-01 -.656508E-02 eV
  Atomic forces after filtering:
  | Net force on center of mass :  0.000000E+00 -.267609E-15 -.178406E-15 eV/A
  | Net torque on center of mass:  0.566451E-15 -.169935E-14 0.566451E-15 eV
 
  Energy and forces in a compact form:
  | Total energy uncorrected      :         -0.834610304002063E+04 eV
  | Total energy corrected        :         -0.834610586096855E+04 eV  <-- do not rely on this value for anything but (periodic) metals
  | Electronic free energy        :         -0.834610868191647E+04 eV
  Total atomic forces (unitary forces cleaned) [eV/Ang]:
  |   1         -0.372513671442712E+00          0.587476792066152E+00         -0.233742397554477E+00
  |   2         -0.318516172012586E-01         -0.164574363901582E+00          0.340519853102584E-01
  |   3          0.125897195017031E+00         -0.353811196894356E-01          0.988665395937187E-01
  |   4          0.902936073891268E-01         -0.115099758984564E-01         -0.125804035212374E-01
  |   5          0.405491092920380E+00         -0.904653005175262E+00          0.263112567239025E+01
  |   6          0.576863193625461E-01          0.235860899407827E+00          0.180923362145536E+00
  |   7         -0.337298272922122E+00          0.329173917372018E+00         -0.268926636658197E+01
  |   8          0.789003093576184E+00          0.127470563955968E+01         -0.725870356162663E+00
  |   9          0.133912401582208E-01         -0.267544651389691E+00          0.949946654190398E-01
  |  10         -0.587940945819633E+00         -0.982890472995081E+00          0.431546536746221E+00
  |  11          0.100190469646205E+01          0.117865803973915E+00         -0.140180758054404E+01
  |  12         -0.336706824503407E+00          0.561678565362021E+00          0.332853833588575E+00
  |  13         -0.817355912996411E+00         -0.740208028692106E+00          0.125890450917079E+01
 
  ------------------------------------ 
  Start decomposition of the XC Energy 
  ------------------------------------ 
  Hartree-Fock part   :          0.000000000 Ha              0.000000000 eV
  ------------------------------------ 
  X Energy            :        -36.214529094 Ha           -985.447475674 eV
  C Energy GGA        :         -1.329792097 Ha            -36.185484065 eV
  Total XC Energy     :        -37.544321192 Ha          -1021.632959738 eV
  LDA X and C from self-consistent density 
  X Energy LDA        :        -32.641385089 Ha           -888.217280269 eV
  C Energy LDA        :         -2.678099080 Ha            -72.874783791 eV
  ------------------------------------ 
  End decomposition of the XC Energy 
  ------------------------------------ 
  Performing Hirshfeld analysis of fragment charges and moments.
  ----------------------------------------------------------------------
  | Atom     1: O
  |   Hirshfeld charge        :     -0.13194266
  |   Free atom volume        :     23.95238533
  |   Hirshfeld volume        :     23.51932770
  |   Hirshfeld dipole vector :     -0.01693189       0.03318357       0.01555937
  |   Hirshfeld dipole moment :      0.04037242
  |   Hirshfeld second moments:      0.04661040      -0.00924004      -0.01208796
  |                                 -0.00924004       0.00555554      -0.03159230
  |                                 -0.01208796      -0.03159230       0.03148099
  ----------------------------------------------------------------------
  | Atom     2: H
  |   Hirshfeld charge        :      0.10474374
  |   Free atom volume        :     10.44207651
  |   Hirshfeld volume        :     10.58728483
  |   Hirshfeld dipole vector :     -0.01897005       0.01183916      -0.00066510
  |   Hirshfeld dipole moment :      0.02237120
  |   Hirshfeld second moments:      0.02123222       0.01121057      -0.00017152
  |                                  0.01121057       0.01804848       0.00794661
  |                                 -0.00017152       0.00794661       0.04318270
  ----------------------------------------------------------------------
  | Atom     3: H
  |   Hirshfeld charge        :      0.03093026
  |   Free atom volume        :     10.44207651
  |   Hirshfeld volume        :     17.53196170
  |   Hirshfeld dipole vector :     -0.05978912      -0.00535352      -0.01668694
  |   Hirshfeld dipole moment :      0.06230451
  |   Hirshfeld second moments:     -0.14117208      -0.02937343      -0.01979200
  |                                 -0.02937343      -0.07372298      -0.01008950
  |                                 -0.01979200      -0.01008950      -0.09735846
  ----------------------------------------------------------------------
  | Atom     4: H
  |   Hirshfeld charge        :      0.10029727
  |   Free atom volume        :     10.44207651
  |   Hirshfeld volume        :     13.52526478
  |   Hirshfeld dipole vector :     -0.04430990       0.00407887       0.01364680
  |   Hirshfeld dipole moment :      0.04654288
  |   Hirshfeld second moments:     -0.01215082      -0.00835420      -0.02037980
  |                                 -0.00835420      -0.00372237      -0.00874678
  |                                 -0.02037980      -0.00874678      -0.04042502
  ----------------------------------------------------------------------
  | Atom     5: O
  |   Hirshfeld charge        :     -0.21138542
  |   Free atom volume        :     23.95238533
  |   Hirshfeld volume        :     21.81057510
  |   Hirshfeld dipole vector :      0.02188536       0.00696046      -0.01311383
  |   Hirshfeld dipole moment :      0.02644597
  |   Hirshfeld second moments:      0.00342098      -0.00104944       0.03146930
  |                                 -0.00104944       0.06284955       0.00480938
  |                                  0.03146930       0.00480938       0.07210653
  ----------------------------------------------------------------------
  | Atom     6: H
  |   Hirshfeld charge        :      0.10117121
  |   Free atom volume        :     10.44207651
  |   Hirshfeld volume        :      9.66428911
  |   Hirshfeld dipole vector :      0.00499787       0.03665018       0.01652217
  |   Hirshfeld dipole moment :      0.04051168
  |   Hirshfeld second moments:      0.02537218      -0.01461503       0.00583197
  |                                 -0.01461503       0.04487359      -0.01393246
  |                                  0.00583197      -0.01393246       0.06166083
  ----------------------------------------------------------------------
  | Atom     7: H
  |   Hirshfeld charge        :      0.12796816
  |   Free atom volume        :     10.44207651
  |   Hirshfeld volume        :      9.86383806
  |   Hirshfeld dipole vector :     -0.02247496       0.01053047      -0.07860142
  |   Hirshfeld dipole moment :      0.08242692
  |   Hirshfeld second moments:      0.03892345       0.00319625       0.01326497
  |                                  0.00319625       0.07178218       0.00598531
  |                                  0.01326497       0.00598531       0.05237314
  ----------------------------------------------------------------------
  | Atom     8: O
  |   Hirshfeld charge        :     -0.20008727
  |   Free atom volume        :     23.95238533
  |   Hirshfeld volume        :     21.65559578
  |   Hirshfeld dipole vector :     -0.00911459      -0.00353658       0.01236109
  |   Hirshfeld dipole moment :      0.01576007
  |   Hirshfeld second moments:      0.04801180       0.00544515       0.01070428
  |                                  0.00544515       0.06263929      -0.02168478
  |                                  0.01070428      -0.02168478       0.03581882
  ----------------------------------------------------------------------
  | Atom     9: H
  |   Hirshfeld charge        :      0.09074148
  |   Free atom volume        :     10.44207651
  |   Hirshfeld volume        :     12.09263665
  |   Hirshfeld dipole vector :      0.01755758       0.00424440       0.03276203
  |   Hirshfeld dipole moment :      0.03741169
  |   Hirshfeld second moments:     -0.00987903       0.04157113       0.00362160
  |                                  0.04157113       0.00898225       0.00324295
  |                                  0.00362160       0.00324295       0.01652140
  ----------------------------------------------------------------------
  | Atom    10: H
  |   Hirshfeld charge        :      0.11882950
  |   Free atom volume        :     10.44207651
  |   Hirshfeld volume        :     10.06786688
  |   Hirshfeld dipole vector :      0.00835753       0.06825768      -0.02287681
  |   Hirshfeld dipole moment :      0.07247281
  |   Hirshfeld second moments:      0.04970206      -0.00387583       0.00882554
  |                                 -0.00387583       0.04953094      -0.00533282
  |                                  0.00882554      -0.00533282       0.04148097
  ----------------------------------------------------------------------
  | Atom    11: O
  |   Hirshfeld charge        :     -0.33425537
  |   Free atom volume        :     23.95238533
  |   Hirshfeld volume        :     23.62483481
  |   Hirshfeld dipole vector :     -0.00983625       0.07189268      -0.01043335
  |   Hirshfeld dipole moment :      0.07330869
  |   Hirshfeld second moments:     -0.03861420      -0.01220516      -0.06121894
  |                                 -0.01220516      -0.03782617       0.01072273
  |                                 -0.06121894       0.01072273       0.00373891
  ----------------------------------------------------------------------
  | Atom    12: H
  |   Hirshfeld charge        :      0.12147763
  |   Free atom volume        :     10.44207651
  |   Hirshfeld volume        :      7.38775236
  |   Hirshfeld dipole vector :     -0.06293423       0.08711363       0.06390918
  |   Hirshfeld dipole moment :      0.12503553
  |   Hirshfeld second moments:      0.08601794       0.00171650      -0.01765949
  |                                  0.00171650       0.08718244      -0.00574770
  |                                 -0.01765949      -0.00574770       0.10350780
  ----------------------------------------------------------------------
  | Atom    13: H
  |   Hirshfeld charge        :      0.08146838
  |   Free atom volume        :     10.44207651
  |   Hirshfeld volume        :      9.09859541
  |   Hirshfeld dipole vector :      0.01603477       0.04440993      -0.04282153
  |   Hirshfeld dipole moment :      0.06374197
  |   Hirshfeld second moments:      0.04496110      -0.01444594       0.00478457
  |                                 -0.01444594       0.06163702       0.01906605
  |                                  0.00478457       0.01906605       0.03840553
  ----------------------------------------------------------------------


------------------------------------------------------------------------------
  Final output of selected total energy values:

  The following output summarizes some interesting total energy values
  at the end of a run (AFTER all relaxation, molecular dynamics, etc.).

  | Total energy of the DFT / Hartree-Fock s.c.f. calculation      :          -8346.103040021 eV
  | Final zero-broadening corrected energy (caution - metals only) :          -8346.105860969 eV
  | For reference only, the value of 1 Hartree used in FHI-aims is :             27.211384500 eV

  Before relying on these values, please be sure to understand exactly which
  total energy value is referred to by a given number. Different objects may
  all carry the same name 'total energy'. Definitions:

  Total energy of the DFT / Hartree-Fock s.c.f. calculation:
  | Note that this energy does not include ANY quantities calculated after the
  | s.c.f. cycle, in particular not ANY RPA, MP2, etc. many-body perturbation terms.

  Final zero-broadening corrected energy:
  | For metallic systems only, a broadening of the occupation numbers at the Fermi
  | level can be extrapolated back to zero broadening by an electron-gas inspired
  | formula. For all systems that are not real metals, this value can be
  | meaningless and should be avoided.

------------------------------------------------------------------------------

------------------------------------------------------------
          Leaving FHI-aims.
          Date     :  20150727, Time     :  125213.670

          Computational steps:
          | Number of self-consistency cycles          :           16

          Detailed time accounting                     :  max(cpu_time)    wall_clock(cpu1)
          | Total time                                 :       27.614 s          27.649 s
          | Preparation time                           :        0.170 s           0.509 s
          | Grid partitioning                          :        0.116 s           0.115 s
          | Preloading free-atom quantities on grid    :        0.013 s           0.013 s
          | Free-atom superposition energy             :        0.052 s           0.052 s
          | Total time for integrations                :       11.668 s          11.668 s
          | Total time for solution of K.-S. equations :        0.709 s           0.710 s
          | Total time for density & force components  :        9.350 s           9.345 s
          | Total time for mixing                      :        0.174 s           0.174 s
          | Total time for Hartree multipole update    :        0.071 s           0.073 s
          | Total time for Hartree multipole sum       :        4.691 s           4.690 s
          | Total time for total energy evaluation     :        0.006 s           0.016 s
          | Total time for scaled ZORA corrections     :        0.000 s           0.000 s
          | Total time for TS (2009) vdW correction    :        0.043 s           0.046 s

          Have a nice day.
------------------------------------------------------------
