  MPI-parallelism will be employed.
------------------------------------------------------------
          Invoking FHI-aims ...
          Version 081213
          Compiled on 2013/08/29 at 17:41:06 on host generoso.

          When using FHI-aims, please cite the following reference:

          Volker Blum, Ralf Gehrke, Felix Hanke, Paula Havu,
          Ville Havu, Xinguo Ren, Karsten Reuter, and Matthias Scheffler,
          'Ab Initio Molecular Simulations with Numeric Atom-Centered Orbitals: FHI-aims',
          Computer Physics Communications 180, 2175-2196 (2009)

          For any questions about FHI-aims, please visit the aimsclub website
          with its forums and wiki. Contributions to both the forums and the
          wiki are warmly encouraged - they are for you, and everyone is welcome there.

------------------------------------------------------------

  Date     :  20150727, Time     :  114036.740
  Time zero on CPU 1             :   0.389930000000000E-01  s.
  Internal wall clock time zero  :           207229236.740  s.

  Using        8 parallel tasks.
  Task        0 on host gen59 reporting.
  Task        1 on host gen59 reporting.
  Task        2 on host gen59 reporting.
  Task        3 on host gen59 reporting.
  Task        4 on host gen59 reporting.
  Task        5 on host gen59 reporting.
  Task        6 on host gen59 reporting.
  Task        7 on host gen59 reporting.

  Performing system and environment tests:
  | Environment variable OMP_NUM_THREADS correctly set to 1.
  | Checking for scalapack...
  | No scalapack compiled in.

  Obtaining array dimensions for all initial allocations:
  
  -----------------------------------------------------------------------
  Parsing control.in (first pass over file, find array dimensions only).
  The contents of control.in will be repeated verbatim below
  unless switched off by setting 'verbatim_writeout .false.' .
  in the first line of control.in .
  -----------------------------------------------------------------------
  
  #########################################################################################
  #
  #  Volker Blum, FHI 2008 : Test run input file control.in
  #
  #########################################################################################
  #
  #  Physical model
  #
    xc                 rpbe
    spin               none
    relativistic       atomic_zora scalar
    charge             0.
   vdw_correction_hirshfeld
  #
  #  SCF convergence
  #
    occupation_type    gaussian 0.01
    mixer              pulay
      n_max_pulay        10
      charge_mix_param   0.1
    sc_accuracy_rho    5E-5
    sc_accuracy_eev    5E-3
    sc_accuracy_etot   5E-6
    sc_iter_limit      3000
  #
  #  Eigenvalue solver
  #
    KS_method          lapack
      empty_states       8
      basis_threshold    0.e-5
  #
  #  Efficiency
  #
  #   all previous settings are now default, except stratmann still
  #   undecided. Continue to handle stratmann with care, if at all.
  #
  #  partition_type stratmann
    partition_type rho_r2
  #  hartree_partition_type stratmann
  #
  #  Oprions for large clusters (100's of atoms: memory saving / better scaling)
  #
  # for periodic systems:
  #
    density_update_method orbital
    packed_matrix_format none
  #  k_grid 6 6 6
  #  output k_eigenvalue 1
  #  distributed_spline_storage .true.
  #
  #  Relaxation
  #
  #  relax_geometry   bfgs 5.e-3
    sc_accuracy_forces 5.E-4
    final_forces_cleaned .true.
  #
  #  Output options
  #
  #  output mulliken
    output Hirshfeld
  #  output dipole
  
  #harmonic_length_scale 0.001
  
  ################################################################################
  #
  #  FHI-aims code project
  #  VB, Fritz-Haber Institut, 2007
  #
  #  Suggested "safe" defaults for H atom (to be pasted into control.in file)
  #  Basis constructed for a non-relativistic H2 molecule using the
  #  PW-LDA functional.
  #
  ################################################################################
    species        H
  #     global species definitions
      nucleus             1
      cut_pot             4.0  2.0  1.0
      cut_free_atom       finite 8.0
      logarithmic         0.00010000 100.00  1.0123
      basis_dep_cutoff    1d-4  # 1d-4 is safe default - please check 5d-4 if you wish!
      radial_base         24 7.0
      radial_multiplier   2
      angular_grids       specified
        division   0.2783  110
        division   0.3822  194
        division   0.5626  302
  #      division   0.5922  434
  #      division   0.6227  590
  #      division   0.7206  770
        outer_grid  302
      l_hartree           4
  ################################################################################
  #
  #  Definition of "minimal" basis
  #
  ################################################################################
  #     valence basis states
      valence      1  s   1.
  #     ion occupancy
      ion_occ      1  s   0.5
  ################################################################################
  #
  #  Suggested additional basis functions. For production calculations,
  #  uncomment them one after another (the most important basis functions are
  #  listed first).
  #
  ################################################################################
  #  "First tier" - improvements: -1014.90 meV to -62.69 meV
       hydro 2 s 2.1
       hydro 2 p 3.5
  #  "Second tier" - improvements: -12.89 meV to -1.83 meV
       hydro 1 s 0.85
       hydro 2 p 3.7
       hydro 2 s 1.2
       hydro 3 d 7
  #  "Third tier" - improvements: -0.25 meV to -0.12 meV
  #     hydro 4 f 11.2
  #     hydro 3 p 4.8
  #     hydro 4 d 9
  #     hydro 3 s 3.2
  
  ################################################################################
  #
  #  FHI-aims code project
  #  VB, Fritz-Haber Institut, 2007
  #
  #  Suggested "safe" defaults for O atom (to be pasted into control.in file)
  #  All values have been tested for a non-relativistic, non-spinpolarized O2
  #  molecule using the PW-LDA functional. Validity for PBE is expected.
  #
  #  Constructed for dimers: 1.0 A, 1.208 A, 1.5 A, 2.0 A, 3.0 A
  #
  ################################################################################
    species        O
  #     global species definitions
      nucleus             8
      mass                15.9994
      l_hartree           4
      cut_pot             4.0  2.0  1.0
      cut_free_atom       finite 8.0
      basis_dep_cutoff    1d-4  # 1d-4 is safe default - please check 5d-4 if you wish!
      logarithmic         0.00010000 100.00  1.0123
      radial_base         36 7.0
      radial_multiplier   2
       angular_grids specified
        division   0.4087  110
        division   0.5181  194
        division   0.6184  302
  #      division   0.7315  434
  #      division   0.7934  590
  #      division   0.9656  770
  #      division   1.4041  974
  #      outer_grid 974
        outer_grid 302
  ################################################################################
  #
  #  Definition of "minimal" basis
  #
  ################################################################################
  #     valence basis states
      valence      2  s   2.
      valence      2  p   4.
  #     ion occupancy
      ion_occ      2  s   1.
      ion_occ      2  p   3.
  ################################################################################
  #
  #  Suggested additional basis functions. For production calculations,
  #  uncomment them one after another (the most important basis functions are
  #  listed first).
  #
  ################################################################################
  #  "First tier" - improvements: -699.05 meV to -159.38 meV
       hydro 2 p 1.8
       hydro 3 d 7.6
       hydro 3 s 6.4
  #  "Second tier" - improvements: -49.91 meV to -5.39 meV
       hydro 4 f 11.6
       hydro 3 p 6.2
       hydro 3 d 5.6
       hydro 5 g 17.6
       hydro 1 s 0.75
  #  "Third tier" - improvements: -2.83 meV to -0.50 meV
  #     ionic 2 p auto
  #     hydro 4 f 10.8
  #     hydro 4 d 4.7
  #     hydro 2 s 6.8
  #  "Fourth tier" - improvements: -0.40 meV to -0.12 meV
  #     hydro 3 p 5
  #     hydro 3 s 3.3
  #     hydro 5 g 15.6
  #     hydro 4 f 17.6
  #     hydro 4 d 14
  # Further basis functions - -0.08 meV and below
  #     hydro 3 s 2.1
  #     hydro 4 d 11.6
  #     hydro 3 p 16
  #     hydro 2 s 17.2
  
  
  -----------------------------------------------------------------------
  Completed first pass over input file control.in .
  -----------------------------------------------------------------------
  
  
  -----------------------------------------------------------------------
  Parsing geometry.in (first pass over file, find array dimensions only).
  The contents of geometry.in will be repeated verbatim below
  unless switched off by setting 'verbatim_writeout .false.' .
  in the first line of geometry.in .
  -----------------------------------------------------------------------
  
  atom      -4.053030000      0.065001000     -1.525160000  O
  atom      -4.566710000      0.974813000     -1.912820000  H
  atom      -3.067820000      0.330172000     -1.477310000  H
  atom      -4.370360000     -0.049164000     -0.572274000  H
  atom      -4.581760000     -0.256435000      0.939478000  O
  atom      -4.349860000      0.471090000      1.504340000  H
  atom      -5.393870000     -0.726611000      1.228070000  H
  atom      -5.293160000      2.192130000     -2.328800000  O
  atom      -4.829300000      2.988660000     -1.973850000  H
  atom      -5.428570000      2.328640000     -3.235170000  H
  atom      -1.645860000      0.870179000     -1.502250000  O
  atom      -1.568890000      1.501730000     -0.721051000  H
  atom      -0.824432000      0.282220000     -1.377720000  H
  atom      -3.818880000      2.024990000      2.187990000  O
  atom      -3.690880000      1.961360000      3.202150000  H
  atom      -4.546490000      2.751300000      2.045370000  H
  atom      -1.975360000      2.858040000      0.453140000  O
  atom      -1.223550000      3.375850000      0.786238000  H
  atom      -2.537520000      2.567960000      1.156120000  H
  atom      -4.066610000      4.258280000     -0.900064000  O
  atom      -3.224110000      3.876870000     -0.569443000  H
  atom      -3.737450000      5.116530000     -1.322720000  H
  atom      -5.628340000      3.730740000      1.385610000  O
  atom      -6.090650000      4.418470000      1.860350000  H
  atom      -5.158540000      4.200260000      0.615875000  H
  
  -----------------------------------------------------------------------
  Completed first pass over input file geometry.in .
  -----------------------------------------------------------------------
  
 
  Basic array size parameters: 
  | Number of species                 :        2
  | Number of atoms                   :       25
  | Max. basis fn. angular momentum   :        4
  | Max. atomic/ionic basis occupied n:        2
  | Max. number of basis fn. types    :        2
  | Max. radial fns per species/type  :        8
  | Max. logarithmic grid size        :     1301
  | Max. radial integration grid size :       73
  | Max. angular integration grid size:      302
  | Max. angular grid division number :        8
  | Radial grid for Hartree potential :     1301
  | Number of spin channels           :        1

------------------------------------------------------------
          Reading file control.in.
------------------------------------------------------------
  XC: Using RPBE gradient-corrected functionals.
  Spin treatment: No spin polarisation.
  Scalar relativistic treatment of kinetic energy: on-site free-atom approximation to ZORA.
  Charge =   0.000000E+00: Neutral system requested explicitly.
  Using non-empirical van der Waals correction (Hirshfeld partitioning):
  Occupation type: Gaussian broadening, width =   0.100000E-01 eV.
  Using pulay charge density mixing.
  Pulay mixing - number of memorized iterations:   10
  Charge density mixing - mixing parameter:     0.1000
  Convergence accuracy of self-consistent charge density: 0.5000E-04
  Convergence accuracy of sum of eigenvalues: 0.5000E-02
  Convergence accuracy of total energy: 0.5000E-05
  Maximum number of s.-c. iterations  :  3000
  Kohn-Sham eigenvalues and eigenfunctions calculated by lapack diagonalisation (D&C).
  Number of empty states per atom:        8
  Threshold for basis singularities: 0.0000E+00
  Partition function in integrals calculations: rho / r^2
 Using packed matrix format           0
  Convergence accuracy of forces: 0.5000E-03
  Cleaning forces before final output.
  Hirshfeld charge analysis will be performed.
 
  Reading configuration options for species H                   .
  | Found nuclear charge :   1.0000
  | Found cutoff potl. onset [A], width [A], scale factor :    4.00000    2.00000    1.00000
  | Found cutoff specification for free atom: Cutoff potential begins at    8.00000 A.
  | Found logarithmic grid data [bohr] : 0.1000E-03 0.1000E+03 0.1012E+01
  | Threshold for basis-dependent cutoff potential is   0.100000E-03
  | Found data for basic radial integration grid :    24 points, outermost radius =    7.000 A
  | Found multiplier for basic radial grid :   2
  | Found angular grid specification: user-specified.
  | Specified grid contains     4 separate shells.
  | Check grid settings after all constraints further below.
  | Found l_max for Hartree potential  :   4
  | Found free-atom valence shell :  1 s   1.000
  | No ionic wave fns used. Skipping ion_occ.
  | Found hydrogenic basis function :  2 s   2.100
  | Found hydrogenic basis function :  2 p   3.500
  | Found hydrogenic basis function :  1 s   0.850
  | Found hydrogenic basis function :  2 p   3.700
  | Found hydrogenic basis function :  2 s   1.200
  | Found hydrogenic basis function :  3 d   7.000
  Species H                   : Missing cutoff potential type.
  Defaulting to exp(1/x)/(1-x)^2 type cutoff potential.
  Species H : On-site basis accuracy parameter (for Gram-Schmidt orthonormalisation) not specified.
  Using default value basis_acc =  0.1000000E-03.
  Species H                   : Using default innermost maximum threshold i_radial=  2 for radial functions.
  Species H                   : Basic radial grid will be enhanced according to radial_multiplier =   2, to contain    49 grid points.
 
  Reading configuration options for species O                   .
  | Found nuclear charge :   8.0000
  | Found atomic mass :    15.9994000000000      amu
  | Found l_max for Hartree potential  :   4
  | Found cutoff potl. onset [A], width [A], scale factor :    4.00000    2.00000    1.00000
  | Found cutoff specification for free atom: Cutoff potential begins at    8.00000 A.
  | Threshold for basis-dependent cutoff potential is   0.100000E-03
  | Found logarithmic grid data [bohr] : 0.1000E-03 0.1000E+03 0.1012E+01
  | Found data for basic radial integration grid :    36 points, outermost radius =    7.000 A
  | Found multiplier for basic radial grid :   2
  | Found angular grid specification: user-specified.
  | Specified grid contains     4 separate shells.
  | Check grid settings after all constraints further below.
  | Found free-atom valence shell :  2 s   2.000
  | Found free-atom valence shell :  2 p   4.000
  | No ionic wave fns used. Skipping ion_occ.
  | No ionic wave fns used. Skipping ion_occ.
  | Found hydrogenic basis function :  2 p   1.800
  | Found hydrogenic basis function :  3 d   7.600
  | Found hydrogenic basis function :  3 s   6.400
  | Found hydrogenic basis function :  4 f  11.600
  | Found hydrogenic basis function :  3 p   6.200
  | Found hydrogenic basis function :  3 d   5.600
  | Found hydrogenic basis function :  5 g  17.600
  | Found hydrogenic basis function :  1 s   0.750
  Species O                   : Missing cutoff potential type.
  Defaulting to exp(1/x)/(1-x)^2 type cutoff potential.
  Species O : On-site basis accuracy parameter (for Gram-Schmidt orthonormalisation) not specified.
  Using default value basis_acc =  0.1000000E-03.
  Species O                   : Using default innermost maximum threshold i_radial=  2 for radial functions.
  Species O                   : Basic radial grid will be enhanced according to radial_multiplier =   2, to contain    73 grid points.
 
  Finished reading input file 'control.in'. Consistency checks are next.
 
  Target number of points in a grid batch is not set. Defaulting to  100
  Method for grid partitioning is not set. Defaulting to parallel hash+maxmin partitioning.
  Batch size limit is not set. Defaulting to    200
  By default, will store active basis functions for each batch.
  If in need of memory, prune_basis_once .false. can be used to disable this option.
  communication_type for Hartree potential was not specified.
  Defaulting to calc_hartree .
  Pulay mixer: Number of initial linear mixing iterations not set.
  Defaulting to    0 iterations.
  Work space size for distributed Hartree potential not set.
  Defaulting to   0.200000E+03 MB.
  Algorithm-dependent basis array size parameters:
  | n_max_pulay                         :       10
  Geometry relaxation not requested: no relaxation will be performed.
  Handling of forces: Unphysical translation and rotation will be removed from forces.
  No accuracy limit for integral partition fn. given. Defaulting to 0.1000E-14.
  No threshold value for u(r) in integrations given. Defaulting to 0.1000E-05.
  No accuracy for occupation numbers given. Defaulting to 0.1000E-07.
  No threshold value for occupation numbers given. Defaulting to 0.0000E+00.
  No accuracy for fermi level given. Defaulting to 0.1000E-19.
  Maximum # of iterations to find E_F not set. Defaulting to  200.
  Will not use alltoall communication since running on < 1024 CPUs.
  Partitioning for Hartree potential was not defined. Using partition_type for integrals.
  | Reporting present value of keyword multip_moments_threshold  :       0.10000000E-09
  | This value may affect high angular momentum components of the Hartree potential in periodic systems.
  No q(lm)/r^(l+1) cutoff set for long-range Hartree potential.
  | Using default value of  0.100000E-09 .
  | Verify using the multipole_threshold keyword.
  Defaulting to new monopole extrapolation.
  Density update method: Loop over occupied states selected for charge density update.
------------------------------------------------------------


------------------------------------------------------------
          Reading geometry description geometry.in.
------------------------------------------------------------
  Input structure read successfully.
  The structure contains       25 atoms,  and a total of         81.000 electrons.

  Input geometry:
  | No unit cell requested.
  | Atomic structure:
  |       Atom                x [A]            y [A]            z [A]
  |    1: Species O             -4.053030         0.065001        -1.525160
  |    2: Species H             -4.566710         0.974813        -1.912820
  |    3: Species H             -3.067820         0.330172        -1.477310
  |    4: Species H             -4.370360        -0.049164        -0.572274
  |    5: Species O             -4.581760        -0.256435         0.939478
  |    6: Species H             -4.349860         0.471090         1.504340
  |    7: Species H             -5.393870        -0.726611         1.228070
  |    8: Species O             -5.293160         2.192130        -2.328800
  |    9: Species H             -4.829300         2.988660        -1.973850
  |   10: Species H             -5.428570         2.328640        -3.235170
  |   11: Species O             -1.645860         0.870179        -1.502250
  |   12: Species H             -1.568890         1.501730        -0.721051
  |   13: Species H             -0.824432         0.282220        -1.377720
  |   14: Species O             -3.818880         2.024990         2.187990
  |   15: Species H             -3.690880         1.961360         3.202150
  |   16: Species H             -4.546490         2.751300         2.045370
  |   17: Species O             -1.975360         2.858040         0.453140
  |   18: Species H             -1.223550         3.375850         0.786238
  |   19: Species H             -2.537520         2.567960         1.156120
  |   20: Species O             -4.066610         4.258280        -0.900064
  |   21: Species H             -3.224110         3.876870        -0.569443
  |   22: Species H             -3.737450         5.116530        -1.322720
  |   23: Species O             -5.628340         3.730740         1.385610
  |   24: Species H             -6.090650         4.418470         1.860350
  |   25: Species H             -5.158540         4.200260         0.615875
  |

  | The smallest distance between any two atoms is         0.92654057 AA.
  |
  | The first atom of this pair is atom number                      8 .
  | The second atom of this pair is atom number                    10 .

  Structure-dependent array size parameters: 
  | Maximum number of distinct radial functions  :       18
  | Maximum number of basis functions            :      567
  | Number of Kohn-Sham states (occupied + empty):      141
------------------------------------------------------------

------------------------------------------------------------
          Preparing all fixed parts of the calculation.
------------------------------------------------------------
  Determining machine precision:
    2.225073858507201E-308
  Setting up grids for atomic and cluster calculations.

  Creating wave function, potential, and density for free atoms.

  Species: H

  List of occupied orbitals and eigenvalues:
    n    l              occ      energy [Ha]    energy [eV]
    1    0           1.0000        -0.241408        -6.5691


  Species: O

  List of occupied orbitals and eigenvalues:
    n    l              occ      energy [Ha]    energy [eV]
    1    0           2.0000       -18.944147      -515.4965
    2    0           2.0000        -0.883529       -24.0421
    2    1           4.0000        -0.330176        -8.9845

  Creating fixed part of basis set: Ionic, confined, hydrogenic.
 
  H                    hydrogenic:
 
  List of hydrogenic basis orbitals: 
    n    l      effective z      eigenvalue [eV]  inner max. [A]     outer max. [A]     outer radius [A]   
    2    0         2.100000       -14.9965           0.193241           1.317192           5.372934
    2    1         3.500000       -41.6672           0.602363           0.602363           4.056010
    1    0         0.850000        -9.8292           0.624864           0.624864           5.372934
    2    1         3.700000       -46.5653           0.573616           0.573616           3.909951
    2    0         1.200000        -4.5995           0.334977           2.228160           5.505921
    3    2         7.000000       -74.0753           0.680692           0.680692           3.769152
 
 
  O                    hydrogenic:
 
  List of hydrogenic basis orbitals: 
    n    l      effective z      eigenvalue [eV]  inner max. [A]     outer max. [A]     outer radius [A]   
    2    1         1.800000       -11.0118           1.178546           1.178546           5.432516
    3    2         7.600000       -87.3182           0.624117           0.624117           3.541422
    3    0         6.400000       -61.9209           0.061166           1.081887           4.306510
    4    3        11.600000      -114.4238           0.731621           0.731621           3.584982
    3    1         6.200000       -58.1113           0.255677           1.030255           4.306510
    3    2         5.600000       -47.4081           0.847222           0.847222           4.413102
    5    4        17.600000      -168.5799           0.749730           0.749730           3.372413
    1    0         0.750000        -7.6499           0.705275           0.705275           5.366508
 

  Adding cutoff potential to free-atom effective potential.
  Creating atomic-like basis functions for current effective potential.

  Species H                   :

  List of atomic basis orbitals and eigenvalues:
    n    l      energy [Ha]    energy [eV]    outer radius [A]
    1    0        -0.241374        -6.5681       5.372934


  Species O                   :

  List of atomic basis orbitals and eigenvalues:
    n    l      energy [Ha]    energy [eV]    outer radius [A]
    1    0       -18.944147      -515.4965       1.415745
    2    0        -0.883529       -24.0421       5.048305
    2    1        -0.330173        -8.9845       5.301302

  Assembling full basis from fixed parts.
  | Species H :   atomic orbital   1 s accepted.
  | Species H :    hydro orbital   2 s accepted.
  | Species H :    hydro orbital   1 s accepted.
  | Species H :    hydro orbital   2 s accepted.
  | Species H :    hydro orbital   2 p accepted.
  | Species H :    hydro orbital   2 p accepted.
  | Species H :    hydro orbital   3 d accepted.
  | Species O :   atomic orbital   1 s accepted.
  | Species O :    hydro orbital   3 s accepted.
  | Species O :   atomic orbital   2 s accepted.
  | Species O :    hydro orbital   1 s accepted.
  | Species O :    hydro orbital   3 p accepted.
  | Species O :   atomic orbital   2 p accepted.
  | Species O :    hydro orbital   2 p accepted.
  | Species O :    hydro orbital   3 d accepted.
  | Species O :    hydro orbital   3 d accepted.
  | Species O :    hydro orbital   4 f accepted.
  | Species O :    hydro orbital   5 g accepted.
 
  Basis size parameters after reduction:
  | Total number of radial functions:       18
  | Total number of basis functions :      567
 
  Testing on-site integration grid accuracy.
  |  Species  Function  <phi|h_atom|phi> (log., in eV)  <phi|h_atom|phi> (rad., in eV)
           1        1                 -6.5683835025                 -6.5684759159
           1        2                 13.3711789951                 13.3708738703
           1        3                 23.6590910787                 23.6532055418
           1        4                 16.2963827186                 16.1870710655 ***
           1        5                 28.7627214838                 28.7627215090
           1        6                 59.5965249172                 59.5965950857
           1        7                 60.2220506392                 60.2220503827
           2        8               -515.4964576505               -515.4964530710
           2        9                 15.3030791347                 15.3030722972
           2       10                -21.7296094581                -21.7296135470
           2       11                 14.2969371730                 14.2969701621
           2       12                 21.0679693190                 21.0679697493
           2       13                 -2.3833606469                 -2.3833613176
           2       14                 13.7067136422                 13.7066766629
           2       15                 45.8013116808                 45.8013116965
           2       16                 52.2309815402                 52.2309831494
           2       17                 85.4120732416                 85.4120732763
           2       18                142.1019167745                142.1019167817
 * Note: Onsite integrals marked "***" above are less accurate than
 * onsite_accuracy_threshold =    0.03000 eV. Usually, this is harmless.
 * When in doubt, tighten the "radial" and/or "radial_multiplier" flags to check.

  Preparing densities etc. for the partition functions (integrals / Hartree potential).

  Preparations completed.
  max(cpu_time)          :      0.177 s.
  Wall clock time (cpu1) :      0.524 s.
------------------------------------------------------------

------------------------------------------------------------
          Begin self-consistency loop: Initialization.

          Date     :  20150727, Time     :  114037.294
------------------------------------------------------------

  Initializing index lists of integration centers etc. from given atomic structure:
  | Number of centers in hartree potential         :        25
  | Number of centers in hartree multipole         :        25
  | Number of centers in electron density summation:        25
  | Number of centers in basis integrals           :        25
  | Number of centers in integrals                 :        25
  Partitioning the integration grid into batches with parallel hashing+maxmin method.
  | Number of batches:     3136
  | Maximal batch size:     200
  | Minimal batch size:      50
  | Average batch size:     104.059
  | Standard deviation of batch sizes:      28.602

  Integration load balanced across     8 MPI tasks.
  Work distribution over tasks is as follows:
  Task     0 has      40778 integration points.
  Task     1 has      40761 integration points.
  Task     2 has      40754 integration points.
  Task     3 has      40761 integration points.
  Task     4 has      40811 integration points.
  Task     5 has      40775 integration points.
  Task     6 has      40800 integration points.
  Task     7 has      40890 integration points.
  Initializing partition tables, free-atom densities, potentials, etc. across the integration grid (initialize_grid_storage).
  | Net number of integration points:   326330
  | of which are non-zero points    :   325741
  Obtaining max. number of non-zero basis functions in each batch (get_n_compute_maxes).
  | Maximal number of non-zero basis functions:      561 in task     0
  | Maximal number of non-zero basis functions:      560 in task     1
  | Maximal number of non-zero basis functions:      560 in task     2
  | Maximal number of non-zero basis functions:      556 in task     3
  | Maximal number of non-zero basis functions:      560 in task     4
  | Maximal number of non-zero basis functions:      561 in task     5
  | Maximal number of non-zero basis functions:      561 in task     6
  | Maximal number of non-zero basis functions:      561 in task     7
  Integrating Hamiltonian matrix: batch-based integration.
  Time summed over all CPUs for integration: real work       23.543 s, elapsed       23.819 s
  Integrating overlap matrix.
  Time summed over all CPUs for integration: real work       13.206 s, elapsed       13.512 s

  Updating Kohn-Sham eigenvalues, eigenvectors, occupation numbers, and Fermi level.
  Solving generalized eigenproblem
  Updating Kohn-Sham eigenvalues and eigenfunctions.
  Transforming overlap matrix and checking for singularities.
  Overlap matrix is nonsingular:
  | Lowest eigenvalue:  0.148290E-03
  Solving real generalised eigenvalue problem by standard LAPACK (fast)
  Determining occupation numbers for Kohn-Sham eigenstates.
  | Chemical potential (Fermi level) in eV                 : -.27631116E+01
  | Error in electron count due to remaining E_F inaccuracy: 0.00000000E+00
  | Maximum occupation number of highest empty state:  0.00E+00

  Writing Kohn-Sham eigenvalues.

  State    Occupation    Eigenvalue [Ha]    Eigenvalue [eV]
      1       2.00000         -19.065405         -518.79607
      2       2.00000         -19.064978         -518.78444
      3       2.00000         -19.059602         -518.63815
      4       2.00000         -19.059295         -518.62980
      5       2.00000         -19.050671         -518.39512
      6       2.00000         -19.045483         -518.25396
      7       2.00000         -19.042597         -518.17543
      8       2.00000         -19.036203         -518.00143
      9       2.00000          -1.132323          -30.81209
     10       2.00000          -1.118123          -30.42568
     11       2.00000          -1.113790          -30.30777
     12       2.00000          -1.105744          -30.08882
     13       2.00000          -1.100323          -29.94131
     14       2.00000          -1.089187          -29.63830
     15       2.00000          -1.081637          -29.43283
     16       2.00000          -1.068391          -29.07239
     17       2.00000          -0.657493          -17.89131
     18       2.00000          -0.655136          -17.82715
     19       2.00000          -0.654062          -17.79794
     20       2.00000          -0.648129          -17.63649
     21       2.00000          -0.632576          -17.21326
     22       2.00000          -0.627329          -17.07049
     23       2.00000          -0.611817          -16.64838
     24       2.00000          -0.607507          -16.53110
     25       2.00000          -0.606372          -16.50022
     26       2.00000          -0.545466          -14.84287
     27       2.00000          -0.531436          -14.46112
     28       2.00000          -0.519249          -14.12949
     29       2.00000          -0.513706          -13.97865
     30       2.00000          -0.506311          -13.77742
     31       2.00000          -0.502760          -13.68080
     32       2.00000          -0.491752          -13.38125
     33       2.00000          -0.482239          -13.12240
     34       2.00000          -0.453217          -12.33266
     35       2.00000          -0.449153          -12.22209
     36       2.00000          -0.446703          -12.15542
     37       2.00000          -0.441013          -12.00058
     38       2.00000          -0.438326          -11.92746
     39       2.00000          -0.435907          -11.86162
     40       2.00000          -0.431691          -11.74691
     41       1.00000          -0.101542           -2.76311
     42       0.00000          -0.069146           -1.88156
     43       0.00000          -0.068603           -1.86678
     44       0.00000          -0.059108           -1.60842
     45       0.00000          -0.043649           -1.18775
     46       0.00000          -0.038588           -1.05003
     47       0.00000          -0.027366           -0.74466
     48       0.00000           0.005150            0.14015
     49       0.00000           0.019892            0.54130
     50       0.00000           0.027876            0.75855
     51       0.00000           0.030364            0.82624
     52       0.00000           0.039590            1.07729
     53       0.00000           0.044806            1.21922
     54       0.00000           0.051038            1.38882
     55       0.00000           0.054343            1.47873
     56       0.00000           0.061514            1.67388
     57       0.00000           0.066645            1.81349
     58       0.00000           0.072935            1.98466
     59       0.00000           0.079618            2.16652
     60       0.00000           0.085705            2.33215
     61       0.00000           0.086868            2.36379
     62       0.00000           0.096519            2.62642
     63       0.00000           0.102736            2.79560
     64       0.00000           0.104617            2.84677
     65       0.00000           0.110795            3.01489
     66       0.00000           0.118856            3.23423
     67       0.00000           0.120071            3.26729
     68       0.00000           0.125862            3.42488
     69       0.00000           0.127284            3.46359
     70       0.00000           0.130371            3.54758
     71       0.00000           0.137973            3.75443
     72       0.00000           0.141484            3.84997
     73       0.00000           0.147737            4.02012
     74       0.00000           0.152012            4.13647
     75       0.00000           0.156837            4.26776
     76       0.00000           0.172587            4.69633
     77       0.00000           0.179045            4.87207
     78       0.00000           0.182158            4.95677
     79       0.00000           0.185745            5.05438
     80       0.00000           0.196150            5.33752
     81       0.00000           0.209665            5.70526
     82       0.00000           0.227392            6.18764
     83       0.00000           0.232106            6.31591
     84       0.00000           0.233834            6.36295
     85       0.00000           0.261413            7.11341
     86       0.00000           0.272593            7.41763
     87       0.00000           0.275135            7.48679
     88       0.00000           0.278834            7.58746
     89       0.00000           0.287573            7.82527
     90       0.00000           0.297564            8.09714
     91       0.00000           0.301990            8.21756
     92       0.00000           0.311734            8.48272
     93       0.00000           0.319689            8.69917
     94       0.00000           0.326910            8.89566
     95       0.00000           0.337808            9.19223
     96       0.00000           0.347077            9.44444
     97       0.00000           0.354789            9.65430
     98       0.00000           0.358239            9.74819
     99       0.00000           0.367897           10.01098
    100       0.00000           0.379817           10.33535
    101       0.00000           0.381954           10.39349
    102       0.00000           0.387717           10.55032
    103       0.00000           0.396710           10.79503
    104       0.00000           0.403857           10.98950
    105       0.00000           0.409889           11.15366
    106       0.00000           0.425095           11.56742
    107       0.00000           0.426426           11.60365
    108       0.00000           0.442909           12.05218
    109       0.00000           0.445927           12.13429
    110       0.00000           0.462596           12.58789
    111       0.00000           0.467646           12.72528
    112       0.00000           0.476196           12.95794
    113       0.00000           0.481067           13.09049
    114       0.00000           0.498876           13.57510
    115       0.00000           0.508339           13.83260
    116       0.00000           0.521684           14.19573
    117       0.00000           0.530552           14.43705
    118       0.00000           0.539902           14.69147
    119       0.00000           0.548680           14.93034
    120       0.00000           0.564096           15.34984
    121       0.00000           0.583696           15.88318
    122       0.00000           0.592861           16.13257
    123       0.00000           0.604059           16.43727
    124       0.00000           0.619825           16.86630
    125       0.00000           0.644043           17.52531
    126       0.00000           0.658148           17.90911
    127       0.00000           0.675989           18.39460
    128       0.00000           0.701456           19.08758
    129       0.00000           0.713510           19.41559
    130       0.00000           0.717285           19.51833
    131       0.00000           0.723892           19.69811
    132       0.00000           0.747739           20.34701
    133       0.00000           0.759882           20.67743
    134       0.00000           0.772415           21.01847
    135       0.00000           0.784835           21.35644
    136       0.00000           0.792828           21.57394
    137       0.00000           0.798554           21.72975
    138       0.00000           0.821088           22.34295
    139       0.00000           0.827350           22.51334
    140       0.00000           0.844798           22.98812
    141       0.00000           0.848492           23.08863

  Highest occupied state (VBM) at     -2.76311165 eV
  | Occupation number:      1.00000000

  Lowest unoccupied state (CBM) at    -2.76311165 eV
  | Occupation number:      1.00000000

  Overall HOMO-LUMO gap:      0.00000000 eV.
  Calculating total energy contributions from superposition of free atom densities.

  Total energy components:
  | Sum of eigenvalues            :        -348.34774364 Ha       -9479.02439178 eV
  | XC energy correction          :         -73.41217076 Ha       -1997.64680544 eV
  | XC potential correction       :          93.84696323 Ha        2553.70580049 eV
  | Free-atom electrostatic energy:        -285.47930177 Ha       -7768.28704721 eV
  | Hartree energy correction     :           0.00000000 Ha           0.00000000 eV
  | van der Waals energy corr.    :           0.00000000 Ha           0.00000000 eV
  | Entropy correction            :          -0.00010367 Ha          -0.00282095 eV
  | ---------------------------
  | Total energy                  :        -613.39225294 Ha      -16691.25244394 eV
  | Total energy, T -> 0          :        -613.39235660 Ha      -16691.25526488 eV  <-- do not rely on this value for anything but (periodic) metals
  | Electronic free energy        :        -613.39246027 Ha      -16691.25808583 eV

  Derived energy quantities:
  | Kinetic energy                :         607.61683704 Ha       16534.09538150 eV
  | Electrostatic energy          :       -1147.59691922 Ha      -31227.70102000 eV
  | Energy correction for multipole
  | error in Hartree potential    :           0.00000000 Ha           0.00000000 eV
  | Sum of eigenvalues per atom                           :        -379.16097567 eV
  | Total energy (T->0) per atom                          :        -667.65021060 eV  <-- do not rely on this value for anything but (periodic) metals
  | Electronic free energy per atom                       :        -667.65032343 eV
  Initialize hartree_potential_storage
  Max. number of atoms included in rho_multipole:           25

  End scf initialization - timings             :  max(cpu_time)    wall_clock(cpu1)
  | Time for scf. initialization               :        6.193 s           6.208 s
  | Boundary condition initialization          :        0.000 s           0.000 s
  | Integration                                :        4.675 s           4.677 s
  | Solution of K.-S. eqns.                    :        0.688 s           0.730 s
  | Grid partitioning                          :        0.244 s           0.253 s
  | Preloading free-atom quantities on grid    :        0.014 s           0.013 s
  | Free-atom superposition energy             :        0.162 s           0.162 s
  | Total energy evaluation                    :        0.000 s           0.001 s
------------------------------------------------------------

------------------------------------------------------------
          Begin self-consistency iteration #    1

  Date     :  20150727, Time     :  114043.503
------------------------------------------------------------
  Evaluating new KS density.
  Integration grid: deviation in total charge (<rho> - N_e) =   7.105427E-14
  Pulay mixing of updated and previous charge densities.

  Evaluating partitioned Hartree potential by multipole expansion.
  | Analytical far-field extrapolation by fixed multipoles:
  | Hartree multipole sum: apparent total charge =  -0.211684E-05
  Summing up the Hartree potential.
  Time summed over all CPUs for potential: real work        7.004 s, elapsed        7.029 s
  | RMS charge density error from multipole expansion :   0.212946E-02

  Integrating Hamiltonian matrix: batch-based integration.
  Time summed over all CPUs for integration: real work       23.535 s, elapsed       23.891 s

  Updating Kohn-Sham eigenvalues, eigenvectors, occupation numbers, and Fermi level.
  Solving generalized eigenproblem
  Updating Kohn-Sham eigenvalues and eigenfunctions.
  Solving real generalised eigenvalue problem by standard LAPACK (fast)
  Determining occupation numbers for Kohn-Sham eigenstates.
  | Chemical potential (Fermi level) in eV                 : -.24598025E+01
  | Error in electron count due to remaining E_F inaccuracy: 0.00000000E+00
  | Maximum occupation number of highest empty state:  0.00E+00

  Writing Kohn-Sham eigenvalues.

  State    Occupation    Eigenvalue [Ha]    Eigenvalue [eV]
      1       2.00000         -19.003639         -517.11534
      2       2.00000         -18.992916         -516.82353
      3       2.00000         -18.983045         -516.55493
      4       2.00000         -18.981554         -516.51436
      5       2.00000         -18.974650         -516.32650
      6       2.00000         -18.973592         -516.29771
      7       2.00000         -18.972479         -516.26741
      8       2.00000         -18.963911         -516.03427
      9       2.00000          -1.099422          -29.91681
     10       2.00000          -1.082596          -29.45893
     11       2.00000          -1.074585          -29.24095
     12       2.00000          -1.068018          -29.06224
     13       2.00000          -1.061796          -28.89293
     14       2.00000          -1.052237          -28.63284
     15       2.00000          -1.046083          -28.46538
     16       2.00000          -1.030424          -28.03925
     17       2.00000          -0.623736          -16.97272
     18       2.00000          -0.622564          -16.94082
     19       2.00000          -0.621574          -16.91389
     20       2.00000          -0.618436          -16.82850
     21       2.00000          -0.599581          -16.31543
     22       2.00000          -0.598717          -16.29192
     23       2.00000          -0.580098          -15.78528
     24       2.00000          -0.576578          -15.68948
     25       2.00000          -0.573516          -15.60618
     26       2.00000          -0.511645          -13.92257
     27       2.00000          -0.495389          -13.48023
     28       2.00000          -0.483242          -13.14968
     29       2.00000          -0.477020          -12.98038
     30       2.00000          -0.469464          -12.77475
     31       2.00000          -0.465414          -12.66456
     32       2.00000          -0.454654          -12.37177
     33       2.00000          -0.446562          -12.15158
     34       2.00000          -0.416494          -11.33337
     35       2.00000          -0.409126          -11.13288
     36       2.00000          -0.407212          -11.08080
     37       2.00000          -0.401985          -10.93857
     38       2.00000          -0.399485          -10.87054
     39       2.00000          -0.398874          -10.85392
     40       2.00000          -0.392151          -10.67097
     41       1.00000          -0.090396           -2.45980
     42       0.00000          -0.059821           -1.62781
     43       0.00000          -0.059097           -1.60810
     44       0.00000          -0.049997           -1.36048
     45       0.00000          -0.035188           -0.95751
     46       0.00000          -0.030509           -0.83020
     47       0.00000          -0.019279           -0.52460
     48       0.00000           0.016460            0.44789
     49       0.00000           0.030555            0.83145
     50       0.00000           0.036591            0.99569
     51       0.00000           0.040957            1.11448
     52       0.00000           0.050328            1.36951
     53       0.00000           0.055727            1.51642
     54       0.00000           0.060366            1.64264
     55       0.00000           0.062856            1.71039
     56       0.00000           0.069783            1.89890
     57       0.00000           0.075841            2.06374
     58       0.00000           0.082218            2.23727
     59       0.00000           0.090414            2.46029
     60       0.00000           0.096737            2.63234
     61       0.00000           0.097378            2.64979
     62       0.00000           0.106482            2.89753
     63       0.00000           0.116556            3.17164
     64       0.00000           0.119053            3.23960
     65       0.00000           0.122646            3.33738
     66       0.00000           0.130906            3.56212
     67       0.00000           0.131657            3.58258
     68       0.00000           0.135655            3.69136
     69       0.00000           0.138555            3.77029
     70       0.00000           0.141370            3.84688
     71       0.00000           0.149503            4.06819
     72       0.00000           0.157904            4.29679
     73       0.00000           0.163233            4.44179
     74       0.00000           0.168237            4.57796
     75       0.00000           0.175812            4.78410
     76       0.00000           0.182528            4.96684
     77       0.00000           0.190497            5.18369
     78       0.00000           0.193532            5.26628
     79       0.00000           0.196223            5.33949
     80       0.00000           0.207231            5.63905
     81       0.00000           0.219736            5.97932
     82       0.00000           0.236857            6.44520
     83       0.00000           0.240910            6.55550
     84       0.00000           0.244337            6.64876
     85       0.00000           0.271208            7.37995
     86       0.00000           0.282144            7.67753
     87       0.00000           0.284742            7.74822
     88       0.00000           0.289695            7.88300
     89       0.00000           0.296603            8.07098
     90       0.00000           0.306179            8.33155
     91       0.00000           0.308893            8.40540
     92       0.00000           0.319610            8.69704
     93       0.00000           0.328136            8.92904
     94       0.00000           0.336110            9.14601
     95       0.00000           0.346794            9.43676
     96       0.00000           0.356038            9.68830
     97       0.00000           0.364054            9.90641
     98       0.00000           0.367049            9.98791
     99       0.00000           0.377988           10.28559
    100       0.00000           0.389952           10.61114
    101       0.00000           0.392044           10.66805
    102       0.00000           0.396459           10.78821
    103       0.00000           0.407410           11.08618
    104       0.00000           0.413175           11.24305
    105       0.00000           0.419043           11.40274
    106       0.00000           0.435242           11.84355
    107       0.00000           0.437159           11.89570
    108       0.00000           0.453333           12.33582
    109       0.00000           0.456430           12.42008
    110       0.00000           0.473679           12.88947
    111       0.00000           0.478955           13.03304
    112       0.00000           0.486304           13.23299
    113       0.00000           0.492021           13.38857
    114       0.00000           0.509996           13.87769
    115       0.00000           0.519711           14.14206
    116       0.00000           0.535259           14.56515
    117       0.00000           0.542795           14.77021
    118       0.00000           0.552822           15.04306
    119       0.00000           0.560513           15.25234
    120       0.00000           0.575880           15.67049
    121       0.00000           0.595790           16.21228
    122       0.00000           0.605085           16.46519
    123       0.00000           0.618171           16.82128
    124       0.00000           0.631548           17.18528
    125       0.00000           0.655845           17.84645
    126       0.00000           0.669864           18.22792
    127       0.00000           0.688394           18.73215
    128       0.00000           0.714985           19.45573
    129       0.00000           0.726747           19.77579
    130       0.00000           0.731175           19.89628
    131       0.00000           0.737636           20.07208
    132       0.00000           0.760618           20.69746
    133       0.00000           0.773741           21.05456
    134       0.00000           0.785819           21.38322
    135       0.00000           0.797504           21.70118
    136       0.00000           0.805331           21.91418
    137       0.00000           0.812906           22.12031
    138       0.00000           0.834447           22.70647
    139       0.00000           0.840407           22.86863
    140       0.00000           0.857057           23.32169
    141       0.00000           0.862614           23.47292

  Highest occupied state (VBM) at     -2.45980249 eV
  | Occupation number:      1.00000000

  Lowest unoccupied state (CBM) at    -2.45980249 eV
  | Occupation number:      1.00000000

  Overall HOMO-LUMO gap:      0.00000000 eV.

  Total energy components:
  | Sum of eigenvalues            :        -344.89932371 Ha       -9385.18811115 eV
  | XC energy correction          :         -73.76701139 Ha       -2007.30251040 eV
  | XC potential correction       :          94.30938363 Ha        2566.28889985 eV
  | Free-atom electrostatic energy:        -285.47930177 Ha       -7768.28704721 eV
  | Hartree energy correction     :          -3.37083908 Ha         -91.72519822 eV
  | van der Waals energy corr.    :           0.00000000 Ha           0.00000000 eV
  | Entropy correction            :          -0.00010367 Ha          -0.00282095 eV
  | ---------------------------
  | Total energy                  :        -613.20709232 Ha      -16686.21396714 eV
  | Total energy, T -> 0          :        -613.20719598 Ha      -16686.21678809 eV  <-- do not rely on this value for anything but (periodic) metals
  | Electronic free energy        :        -613.20729965 Ha      -16686.21960904 eV

  Derived energy quantities:
  | Kinetic energy                :         609.76687574 Ha       16592.60091117 eV
  | Electrostatic energy          :       -1149.20695667 Ha      -31271.51236791 eV
  | Energy correction for multipole
  | error in Hartree potential    :           0.00054433 Ha           0.01481194 eV
  | Sum of eigenvalues per atom                           :        -375.40752445 eV
  | Total energy (T->0) per atom                          :        -667.44867152 eV  <-- do not rely on this value for anything but (periodic) metals
  | Electronic free energy per atom                       :        -667.44878436 eV

  Self-consistency convergence accuracy:
  | Change of charge density      : 0.8000E+00
  | Change of sum of eigenvalues  : 0.9384E+02 eV
  | Change of total energy        : 0.5038E+01 eV

  End self-consistency iteration #     1       :  max(cpu_time)    wall_clock(cpu1)
  | Time for this iteration                    :        6.038 s           6.037 s
  | Charge density update                      :        1.965 s           1.964 s
  | Density mixing                             :        0.006 s           0.006 s
  | Hartree multipole update                   :        0.009 s           0.009 s
  | Hartree multipole summation                :        0.880 s           0.880 s
  | Integration                                :        2.992 s           2.991 s
  | Solution of K.-S. eqns.                    :        0.181 s           0.181 s
  | Total energy evaluation                    :        0.000 s           0.001 s
------------------------------------------------------------

------------------------------------------------------------
          Begin self-consistency iteration #    2

  Date     :  20150727, Time     :  114049.541
------------------------------------------------------------
  Evaluating new KS density.
  Integration grid: deviation in total charge (<rho> - N_e) =   1.421085E-14
  Pulay mixing of updated and previous charge densities.

  Evaluating partitioned Hartree potential by multipole expansion.
  | Analytical far-field extrapolation by fixed multipoles:
  | Hartree multipole sum: apparent total charge =  -0.663257E-05
  Summing up the Hartree potential.
  Time summed over all CPUs for potential: real work        7.001 s, elapsed        7.030 s
  | RMS charge density error from multipole expansion :   0.879639E-02

  Integrating Hamiltonian matrix: batch-based integration.
  Time summed over all CPUs for integration: real work       23.497 s, elapsed       23.793 s

  Updating Kohn-Sham eigenvalues, eigenvectors, occupation numbers, and Fermi level.
  Solving generalized eigenproblem
  Updating Kohn-Sham eigenvalues and eigenfunctions.
  Solving real generalised eigenvalue problem by standard LAPACK (fast)
  Determining occupation numbers for Kohn-Sham eigenstates.
  | Chemical potential (Fermi level) in eV                 : -.17722812E+01
  | Error in electron count due to remaining E_F inaccuracy: 0.12363444E-11
  | Maximum occupation number of highest empty state:  0.00E+00

  Highest occupied state (VBM) at     -1.77228123 eV
  | Occupation number:      1.00000000

  Lowest unoccupied state (CBM) at    -1.04470704 eV
  | Occupation number:      0.00000000

  Overall HOMO-LUMO gap:      0.72757418 eV.

  Total energy components:
  | Sum of eigenvalues            :        -336.37946883 Ha       -9153.35106426 eV
  | XC energy correction          :         -74.69102421 Ha       -2032.44617859 eV
  | XC potential correction       :          95.51084614 Ha        2598.98235831 eV
  | Free-atom electrostatic energy:        -285.47930177 Ha       -7768.28704721 eV
  | Hartree energy correction     :         -11.95546701 Ha        -325.32480961 eV
  | van der Waals energy corr.    :           0.00000000 Ha           0.00000000 eV
  | Entropy correction            :          -0.00010367 Ha          -0.00282095 eV
  | ---------------------------
  | Total energy                  :        -612.99441568 Ha      -16680.42674136 eV
  | Total energy, T -> 0          :        -612.99451935 Ha      -16680.42956230 eV  <-- do not rely on this value for anything but (periodic) metals
  | Electronic free energy        :        -612.99462301 Ha      -16680.43238325 eV

  Derived energy quantities:
  | Kinetic energy                :         614.39914953 Ha       16718.65149444 eV
  | Electrostatic energy          :       -1152.70254100 Ha      -31366.63205721 eV
  | Energy correction for multipole
  | error in Hartree potential    :           0.00050245 Ha           0.01367224 eV
  | Sum of eigenvalues per atom                           :        -366.13404257 eV
  | Total energy (T->0) per atom                          :        -667.21718249 eV  <-- do not rely on this value for anything but (periodic) metals
  | Electronic free energy per atom                       :        -667.21729533 eV

  Self-consistency convergence accuracy:
  | Change of charge density      : 0.6094E+00
  | Change of sum of eigenvalues  : 0.2318E+03 eV
  | Change of total energy        : 0.5787E+01 eV

  End self-consistency iteration #     2       :  max(cpu_time)    wall_clock(cpu1)
  | Time for this iteration                    :        6.028 s           6.030 s
  | Charge density update                      :        1.968 s           1.967 s
  | Density mixing                             :        0.009 s           0.012 s
  | Hartree multipole update                   :        0.009 s           0.009 s
  | Hartree multipole summation                :        0.880 s           0.880 s
  | Integration                                :        2.980 s           2.979 s
  | Solution of K.-S. eqns.                    :        0.181 s           0.182 s
  | Total energy evaluation                    :        0.000 s           0.001 s
------------------------------------------------------------

------------------------------------------------------------
          Begin self-consistency iteration #    3

  Date     :  20150727, Time     :  114055.572
------------------------------------------------------------
  Evaluating new KS density.
  Integration grid: deviation in total charge (<rho> - N_e) =   1.264766E-12
  Pulay mixing of updated and previous charge densities.

  Evaluating partitioned Hartree potential by multipole expansion.
  | Analytical far-field extrapolation by fixed multipoles:
  | Hartree multipole sum: apparent total charge =  -0.665214E-05
  Summing up the Hartree potential.
  Time summed over all CPUs for potential: real work        7.000 s, elapsed        7.028 s
  | RMS charge density error from multipole expansion :   0.183129E-01

  Integrating Hamiltonian matrix: batch-based integration.
  Time summed over all CPUs for integration: real work       23.508 s, elapsed       23.873 s

  Updating Kohn-Sham eigenvalues, eigenvectors, occupation numbers, and Fermi level.
  Solving generalized eigenproblem
  Updating Kohn-Sham eigenvalues and eigenfunctions.
  Solving real generalised eigenvalue problem by standard LAPACK (fast)
  Determining occupation numbers for Kohn-Sham eigenstates.
  | Chemical potential (Fermi level) in eV                 : -.16688185E+01
  | Error in electron count due to remaining E_F inaccuracy: 0.00000000E+00
  | Maximum occupation number of highest empty state:  0.00E+00

  Highest occupied state (VBM) at     -1.66881851 eV
  | Occupation number:      1.00000000

  Lowest unoccupied state (CBM) at    -1.66881851 eV
  | Occupation number:      1.00000000

  Overall HOMO-LUMO gap:      0.00000000 eV.

  Total energy components:
  | Sum of eigenvalues            :        -336.72231615 Ha       -9162.68041454 eV
  | XC energy correction          :         -74.72830497 Ha       -2033.46063970 eV
  | XC potential correction       :          95.54422633 Ha        2599.89067950 eV
  | Free-atom electrostatic energy:        -285.47930177 Ha       -7768.28704721 eV
  | Hartree energy correction     :         -11.60674140 Ha        -315.83550290 eV
  | van der Waals energy corr.    :           0.00000000 Ha           0.00000000 eV
  | Entropy correction            :          -0.00010367 Ha          -0.00282095 eV
  | ---------------------------
  | Total energy                  :        -612.99243796 Ha      -16680.37292485 eV
  | Total energy, T -> 0          :        -612.99254163 Ha      -16680.37574579 eV  <-- do not rely on this value for anything but (periodic) metals
  | Electronic free energy        :        -612.99264529 Ha      -16680.37856674 eV

  Derived energy quantities:
  | Kinetic energy                :         611.55619799 Ha       16641.29084685 eV
  | Electrostatic energy          :       -1149.82033097 Ha      -31288.20313200 eV
  | Energy correction for multipole
  | error in Hartree potential    :          -0.00846102 Ha          -0.23023613 eV
  | Sum of eigenvalues per atom                           :        -366.50721658 eV
  | Total energy (T->0) per atom                          :        -667.21502983 eV  <-- do not rely on this value for anything but (periodic) metals
  | Electronic free energy per atom                       :        -667.21514267 eV

  Self-consistency convergence accuracy:
  | Change of charge density      : 0.2871E+00
  | Change of sum of eigenvalues  : -.9329E+01 eV
  | Change of total energy        : 0.5382E-01 eV

  End self-consistency iteration #     3       :  max(cpu_time)    wall_clock(cpu1)
  | Time for this iteration                    :        6.042 s           6.041 s
  | Charge density update                      :        1.966 s           1.965 s
  | Density mixing                             :        0.011 s           0.011 s
  | Hartree multipole update                   :        0.009 s           0.009 s
  | Hartree multipole summation                :        0.880 s           0.880 s
  | Integration                                :        2.990 s           2.989 s
  | Solution of K.-S. eqns.                    :        0.180 s           0.186 s
  | Total energy evaluation                    :        0.001 s           0.001 s
------------------------------------------------------------

------------------------------------------------------------
          Begin self-consistency iteration #    4

  Date     :  20150727, Time     :  114101.614
------------------------------------------------------------
  Evaluating new KS density.
  Integration grid: deviation in total charge (<rho> - N_e) =  -1.421085E-14
  Pulay mixing of updated and previous charge densities.

  Evaluating partitioned Hartree potential by multipole expansion.
  | Analytical far-field extrapolation by fixed multipoles:
  | Hartree multipole sum: apparent total charge =  -0.784113E-05
  Summing up the Hartree potential.
  Time summed over all CPUs for potential: real work        7.000 s, elapsed        7.027 s
  | RMS charge density error from multipole expansion :   0.219359E-01

  Integrating Hamiltonian matrix: batch-based integration.
  Time summed over all CPUs for integration: real work       23.494 s, elapsed       23.761 s

  Updating Kohn-Sham eigenvalues, eigenvectors, occupation numbers, and Fermi level.
  Solving generalized eigenproblem
  Updating Kohn-Sham eigenvalues and eigenfunctions.
  Solving real generalised eigenvalue problem by standard LAPACK (fast)
  Determining occupation numbers for Kohn-Sham eigenstates.
  | Chemical potential (Fermi level) in eV                 : -.15442888E+01
  | Error in electron count due to remaining E_F inaccuracy: -.12698820E-09
  | Maximum occupation number of highest empty state:  0.00E+00

  Highest occupied state (VBM) at     -7.39072016 eV
  | Occupation number:      2.00000000

  Lowest unoccupied state (CBM) at    -1.54428877 eV
  | Occupation number:      1.00000000

  Overall HOMO-LUMO gap:      5.84643139 eV.

  Total energy components:
  | Sum of eigenvalues            :        -335.22471330 Ha       -9121.92856753 eV
  | XC energy correction          :         -74.92695432 Ha       -2038.86616340 eV
  | XC potential correction       :          95.79907694 Ha        2606.82551730 eV
  | Free-atom electrostatic energy:        -285.47930177 Ha       -7768.28704721 eV
  | Hartree energy correction     :         -13.15473670 Ha        -357.95859839 eV
  | van der Waals energy corr.    :           0.00000000 Ha           0.00000000 eV
  | Entropy correction            :          -0.00010367 Ha          -0.00282095 eV
  | ---------------------------
  | Total energy                  :        -612.98662915 Ha      -16680.21485924 eV
  | Total energy, T -> 0          :        -612.98673282 Ha      -16680.21768018 eV  <-- do not rely on this value for anything but (periodic) metals
  | Electronic free energy        :        -612.98683649 Ha      -16680.22050113 eV

  Derived energy quantities:
  | Kinetic energy                :         611.68279290 Ha       16644.73566956 eV
  | Electrostatic energy          :       -1149.74246773 Ha      -31286.08436540 eV
  | Energy correction for multipole
  | error in Hartree potential    :          -0.01089445 Ha          -0.29645317 eV
  | Sum of eigenvalues per atom                           :        -364.87714270 eV
  | Total energy (T->0) per atom                          :        -667.20870721 eV  <-- do not rely on this value for anything but (periodic) metals
  | Electronic free energy per atom                       :        -667.20882005 eV

  Self-consistency convergence accuracy:
  | Change of charge density      : 0.1166E+00
  | Change of sum of eigenvalues  : 0.4075E+02 eV
  | Change of total energy        : 0.1581E+00 eV

  End self-consistency iteration #     4       :  max(cpu_time)    wall_clock(cpu1)
  | Time for this iteration                    :        6.025 s           6.025 s
  | Charge density update                      :        1.964 s           1.963 s
  | Density mixing                             :        0.015 s           0.015 s
  | Hartree multipole update                   :        0.008 s           0.008 s
  | Hartree multipole summation                :        0.880 s           0.880 s
  | Integration                                :        2.976 s           2.975 s
  | Solution of K.-S. eqns.                    :        0.182 s           0.182 s
  | Total energy evaluation                    :        0.000 s           0.001 s
------------------------------------------------------------

------------------------------------------------------------
          Begin self-consistency iteration #    5

  Date     :  20150727, Time     :  114107.639
------------------------------------------------------------
  Evaluating new KS density.
  Integration grid: deviation in total charge (<rho> - N_e) =  -1.269171E-10
  Pulay mixing of updated and previous charge densities.

  Evaluating partitioned Hartree potential by multipole expansion.
  | Analytical far-field extrapolation by fixed multipoles:
  | Hartree multipole sum: apparent total charge =  -0.818622E-05
  Summing up the Hartree potential.
  Time summed over all CPUs for potential: real work        7.000 s, elapsed        7.027 s
  | RMS charge density error from multipole expansion :   0.226796E-01

  Integrating Hamiltonian matrix: batch-based integration.
  Time summed over all CPUs for integration: real work       23.508 s, elapsed       23.805 s

  Updating Kohn-Sham eigenvalues, eigenvectors, occupation numbers, and Fermi level.
  Solving generalized eigenproblem
  Updating Kohn-Sham eigenvalues and eigenfunctions.
  Solving real generalised eigenvalue problem by standard LAPACK (fast)
  Determining occupation numbers for Kohn-Sham eigenstates.
  | Chemical potential (Fermi level) in eV                 : -.15473068E+01
  | Error in electron count due to remaining E_F inaccuracy: -.69633188E-12
  | Maximum occupation number of highest empty state:  0.00E+00

  Highest occupied state (VBM) at     -7.32150616 eV
  | Occupation number:      2.00000000

  Lowest unoccupied state (CBM) at    -1.54730678 eV
  | Occupation number:      1.00000000

  Overall HOMO-LUMO gap:      5.77419938 eV.

  Total energy components:
  | Sum of eigenvalues            :        -335.06649296 Ha       -9117.62317308 eV
  | XC energy correction          :         -74.94787698 Ha       -2039.43549799 eV
  | XC potential correction       :          95.82519326 Ha        2607.53617851 eV
  | Free-atom electrostatic energy:        -285.47930177 Ha       -7768.28704721 eV
  | Hartree energy correction     :         -13.31766593 Ha        -362.39212822 eV
  | van der Waals energy corr.    :           0.00000000 Ha           0.00000000 eV
  | Entropy correction            :          -0.00010367 Ha          -0.00282095 eV
  | ---------------------------
  | Total energy                  :        -612.98614438 Ha      -16680.20166800 eV
  | Total energy, T -> 0          :        -612.98624805 Ha      -16680.20448895 eV  <-- do not rely on this value for anything but (periodic) metals
  | Electronic free energy        :        -612.98635172 Ha      -16680.20730990 eV

  Derived energy quantities:
  | Kinetic energy                :         611.67908934 Ha       16644.63489070 eV
  | Electrostatic energy          :       -1149.71735675 Ha      -31285.40106071 eV
  | Energy correction for multipole
  | error in Hartree potential    :          -0.01195125 Ha          -0.32521003 eV
  | Sum of eigenvalues per atom                           :        -364.70492692 eV
  | Total energy (T->0) per atom                          :        -667.20817956 eV  <-- do not rely on this value for anything but (periodic) metals
  | Electronic free energy per atom                       :        -667.20829240 eV

  Self-consistency convergence accuracy:
  | Change of charge density      : 0.3433E-01
  | Change of sum of eigenvalues  : 0.4305E+01 eV
  | Change of total energy        : 0.1319E-01 eV

  End self-consistency iteration #     5       :  max(cpu_time)    wall_clock(cpu1)
  | Time for this iteration                    :        6.039 s           6.040 s
  | Charge density update                      :        1.971 s           1.971 s
  | Density mixing                             :        0.016 s           0.016 s
  | Hartree multipole update                   :        0.009 s           0.009 s
  | Hartree multipole summation                :        0.880 s           0.880 s
  | Integration                                :        2.981 s           2.980 s
  | Solution of K.-S. eqns.                    :        0.182 s           0.182 s
  | Total energy evaluation                    :        0.000 s           0.001 s
------------------------------------------------------------

------------------------------------------------------------
          Begin self-consistency iteration #    6

  Date     :  20150727, Time     :  114113.680
------------------------------------------------------------
  Evaluating new KS density.
  Integration grid: deviation in total charge (<rho> - N_e) =  -6.394885E-13
  Pulay mixing of updated and previous charge densities.

  Evaluating partitioned Hartree potential by multipole expansion.
  | Analytical far-field extrapolation by fixed multipoles:
  | Hartree multipole sum: apparent total charge =  -0.836713E-05
  Summing up the Hartree potential.
  Time summed over all CPUs for potential: real work        7.000 s, elapsed        7.026 s
  | RMS charge density error from multipole expansion :   0.230276E-01

  Integrating Hamiltonian matrix: batch-based integration.
  Time summed over all CPUs for integration: real work       23.508 s, elapsed       23.789 s

  Updating Kohn-Sham eigenvalues, eigenvectors, occupation numbers, and Fermi level.
  Solving generalized eigenproblem
  Updating Kohn-Sham eigenvalues and eigenfunctions.
  Solving real generalised eigenvalue problem by standard LAPACK (fast)
  Determining occupation numbers for Kohn-Sham eigenstates.
  | Chemical potential (Fermi level) in eV                 : -.15510130E+01
  | Error in electron count due to remaining E_F inaccuracy: -.13386625E-10
  | Maximum occupation number of highest empty state:  0.00E+00

  Highest occupied state (VBM) at     -7.32298375 eV
  | Occupation number:      2.00000000

  Lowest unoccupied state (CBM) at    -1.55101296 eV
  | Occupation number:      1.00000000

  Overall HOMO-LUMO gap:      5.77197078 eV.

  Total energy components:
  | Sum of eigenvalues            :        -335.08180362 Ha       -9118.03979713 eV
  | XC energy correction          :         -74.95060904 Ha       -2039.50984110 eV
  | XC potential correction       :          95.82817680 Ha        2607.61736481 eV
  | Free-atom electrostatic energy:        -285.47930177 Ha       -7768.28704721 eV
  | Hartree energy correction     :         -13.30264819 Ha        -361.98347484 eV
  | van der Waals energy corr.    :           0.00000000 Ha           0.00000000 eV
  | Entropy correction            :          -0.00010367 Ha          -0.00282095 eV
  | ---------------------------
  | Total energy                  :        -612.98618582 Ha      -16680.20279547 eV
  | Total energy, T -> 0          :        -612.98628949 Ha      -16680.20561642 eV  <-- do not rely on this value for anything but (periodic) metals
  | Electronic free energy        :        -612.98639315 Ha      -16680.20843737 eV

  Derived energy quantities:
  | Kinetic energy                :         611.62343354 Ha       16643.12041924 eV
  | Electrostatic energy          :       -1149.65901032 Ha      -31283.81337361 eV
  | Energy correction for multipole
  | error in Hartree potential    :          -0.01245787 Ha          -0.33899592 eV
  | Sum of eigenvalues per atom                           :        -364.72159189 eV
  | Total energy (T->0) per atom                          :        -667.20822466 eV  <-- do not rely on this value for anything but (periodic) metals
  | Electronic free energy per atom                       :        -667.20833749 eV

  Self-consistency convergence accuracy:
  | Change of charge density      : 0.9434E-02
  | Change of sum of eigenvalues  : -.4166E+00 eV
  | Change of total energy        : -.1127E-02 eV

  End self-consistency iteration #     6       :  max(cpu_time)    wall_clock(cpu1)
  | Time for this iteration                    :        6.031 s           6.031 s
  | Charge density update                      :        1.962 s           1.961 s
  | Density mixing                             :        0.019 s           0.019 s
  | Hartree multipole update                   :        0.009 s           0.009 s
  | Hartree multipole summation                :        0.879 s           0.879 s
  | Integration                                :        2.979 s           2.979 s
  | Solution of K.-S. eqns.                    :        0.182 s           0.182 s
  | Total energy evaluation                    :        0.000 s           0.000 s
------------------------------------------------------------

------------------------------------------------------------
          Begin self-consistency iteration #    7

  Date     :  20150727, Time     :  114119.711
------------------------------------------------------------
  Evaluating new KS density.
  Integration grid: deviation in total charge (<rho> - N_e) =  -1.334399E-11
  Pulay mixing of updated and previous charge densities.

  Evaluating partitioned Hartree potential by multipole expansion.
  | Analytical far-field extrapolation by fixed multipoles:
  | Hartree multipole sum: apparent total charge =  -0.858871E-05
  Summing up the Hartree potential.
  Time summed over all CPUs for potential: real work        7.000 s, elapsed        7.028 s
  | RMS charge density error from multipole expansion :   0.230696E-01

  Integrating Hamiltonian matrix: batch-based integration.
  Time summed over all CPUs for integration: real work       23.521 s, elapsed       23.798 s

  Updating Kohn-Sham eigenvalues, eigenvectors, occupation numbers, and Fermi level.
  Solving generalized eigenproblem
  Updating Kohn-Sham eigenvalues and eigenfunctions.
  Solving real generalised eigenvalue problem by standard LAPACK (fast)
  Determining occupation numbers for Kohn-Sham eigenstates.
  | Chemical potential (Fermi level) in eV                 : -.15658815E+01
  | Error in electron count due to remaining E_F inaccuracy: -.56843419E-13
  | Maximum occupation number of highest empty state:  0.00E+00

  Highest occupied state (VBM) at     -7.35060835 eV
  | Occupation number:      2.00000000

  Lowest unoccupied state (CBM) at    -1.56588150 eV
  | Occupation number:      1.00000000

  Overall HOMO-LUMO gap:      5.78472684 eV.

  Total energy components:
  | Sum of eigenvalues            :        -335.14863152 Ha       -9119.85827704 eV
  | XC energy correction          :         -74.94531135 Ha       -2039.36568358 eV
  | XC potential correction       :          95.82097507 Ha        2607.42139574 eV
  | Free-atom electrostatic energy:        -285.47930177 Ha       -7768.28704721 eV
  | Hartree energy correction     :         -13.23389372 Ha        -360.11257051 eV
  | van der Waals energy corr.    :           0.00000000 Ha           0.00000000 eV
  | Entropy correction            :          -0.00010367 Ha          -0.00282095 eV
  | ---------------------------
  | Total energy                  :        -612.98616330 Ha      -16680.20218261 eV
  | Total energy, T -> 0          :        -612.98626696 Ha      -16680.20500356 eV  <-- do not rely on this value for anything but (periodic) metals
  | Electronic free energy        :        -612.98637063 Ha      -16680.20782451 eV

  Derived energy quantities:
  | Kinetic energy                :         611.66884558 Ha       16644.35614367 eV
  | Electrostatic energy          :       -1149.70969752 Ha      -31285.19264270 eV
  | Energy correction for multipole
  | error in Hartree potential    :          -0.01288890 Ha          -0.35072487 eV
  | Sum of eigenvalues per atom                           :        -364.79433108 eV
  | Total energy (T->0) per atom                          :        -667.20820014 eV  <-- do not rely on this value for anything but (periodic) metals
  | Electronic free energy per atom                       :        -667.20831298 eV

  Self-consistency convergence accuracy:
[...]
  |  19         -0.105845833500745E+01         -0.563405258783003E+00          0.203925001064194E+01
  |  20          0.304858013472245E+00          0.128911546320983E+01         -0.787613538594030E+00
  |  21          0.329720535224475E+00         -0.362741832465889E+00          0.313032843578789E+00
  |  22         -0.592104762868213E+00         -0.854593906375397E+00          0.382473276446556E+00
  |  23          0.739424273963081E+00          0.447499679085709E-01         -0.131073637182306E+01
  |  24         -0.444368771392657E+00          0.669672367753443E+00          0.551825146422739E+00
  |  25         -0.512383311782751E+00         -0.562259555014802E+00          0.718578845629965E+00
 
  ------------------------------------ 
  Start decomposition of the XC Energy 
  ------------------------------------ 
  Hartree-Fock part   :          0.000000000 Ha              0.000000000 eV
  ------------------------------------ 
  X Energy            :        -72.278710764 Ha          -1966.803789776 eV
  C Energy GGA        :         -2.664191047 Ha            -72.496326970 eV
  Total XC Energy     :        -74.942901812 Ha          -2039.300116746 eV
  LDA X and C from self-consistent density 
  X Energy LDA        :        -65.208959387 Ha          -1774.426066720 eV
  C Energy LDA        :         -5.329993627 Ha           -145.036505960 eV
  ------------------------------------ 
  End decomposition of the XC Energy 
  ------------------------------------ 
  Performing Hirshfeld analysis of fragment charges and moments.
  ----------------------------------------------------------------------
  | Atom     1: O
  |   Hirshfeld charge        :     -0.15499288
  |   Free atom volume        :     23.95238533
  |   Hirshfeld volume        :     20.96182090
  |   Hirshfeld dipole vector :      0.00621856       0.02896116       0.02382326
  |   Hirshfeld dipole moment :      0.03801273
  |   Hirshfeld second moments:      0.08657518      -0.00691945      -0.00592126
  |                                 -0.00691945       0.05677411      -0.02207400
  |                                 -0.00592126      -0.02207400       0.06938632
  ----------------------------------------------------------------------
  | Atom     2: H
  |   Hirshfeld charge        :      0.12026716
  |   Free atom volume        :     10.44207651
  |   Hirshfeld volume        :      8.51587017
  |   Hirshfeld dipole vector :     -0.00451711       0.01591500      -0.00277224
  |   Hirshfeld dipole moment :      0.01677429
  |   Hirshfeld second moments:      0.06722024       0.02533883      -0.00556705
  |                                  0.02533883       0.04176458       0.01601131
  |                                 -0.00556705       0.01601131       0.08476908
  ----------------------------------------------------------------------
  | Atom     3: H
  |   Hirshfeld charge        :      0.10774917
  |   Free atom volume        :     10.44207651
  |   Hirshfeld volume        :      8.64509693
  |   Hirshfeld dipole vector :      0.01754830       0.00696622       0.00793652
  |   Hirshfeld dipole moment :      0.02048070
  |   Hirshfeld second moments:      0.02725586      -0.02074362      -0.00087046
  |                                 -0.02074362       0.07665886       0.00245988
  |                                 -0.00087046       0.00245988       0.08001184
  ----------------------------------------------------------------------
  | Atom     4: H
  |   Hirshfeld charge        :      0.11092354
  |   Free atom volume        :     10.44207651
  |   Hirshfeld volume        :      8.45747476
  |   Hirshfeld dipole vector :     -0.01496718       0.00277827       0.01975493
  |   Hirshfeld dipole moment :      0.02493978
  |   Hirshfeld second moments:      0.08514430       0.00574960       0.01190218
  |                                  0.00574960       0.08475045       0.00686423
  |                                  0.01190218       0.00686423       0.02553247
  ----------------------------------------------------------------------
  | Atom     5: O
  |   Hirshfeld charge        :     -0.23425971
  |   Free atom volume        :     23.95238533
  |   Hirshfeld volume        :     21.58812725
  |   Hirshfeld dipole vector :     -0.02338322       0.02596745      -0.00695528
  |   Hirshfeld dipole moment :      0.03562947
  |   Hirshfeld second moments:      0.04092661       0.04549579      -0.01360885
  |                                  0.04549579       0.03830969       0.00984881
  |                                 -0.01360885       0.00984881       0.05537601
  ----------------------------------------------------------------------
  | Atom     6: H
  |   Hirshfeld charge        :      0.09282117
  |   Free atom volume        :     10.44207651
  |   Hirshfeld volume        :      9.05454484
  |   Hirshfeld dipole vector :      0.00944163       0.03359199       0.01902822
  |   Hirshfeld dipole moment :      0.03974467
  |   Hirshfeld second moments:      0.06392129       0.00325174      -0.01162891
  |                                  0.00325174       0.03398506      -0.01834132
  |                                 -0.01162891      -0.01834132       0.06070493
  ----------------------------------------------------------------------
  | Atom     7: H
  |   Hirshfeld charge        :      0.13644335
  |   Free atom volume        :     10.44207651
  |   Hirshfeld volume        :      9.18365900
  |   Hirshfeld dipole vector :     -0.07399026      -0.04443302       0.01465689
  |   Hirshfeld dipole moment :      0.08754242
  |   Hirshfeld second moments:      0.05117336       0.00831559       0.00107725
  |                                  0.00831559       0.07162605       0.01000731
  |                                  0.00107725       0.01000731       0.07451144
  ----------------------------------------------------------------------
  | Atom     8: O
  |   Hirshfeld charge        :     -0.21057222
  |   Free atom volume        :     23.95238533
  |   Hirshfeld volume        :     21.47616636
  |   Hirshfeld dipole vector :      0.03400299      -0.00041401      -0.01363668
  |   Hirshfeld dipole moment :      0.03663787
  |   Hirshfeld second moments:      0.01482579       0.00058192       0.03103730
  |                                  0.00058192       0.06471209       0.00460073
  |                                  0.03103730       0.00460073       0.07865351
  ----------------------------------------------------------------------
  | Atom     9: H
  |   Hirshfeld charge        :      0.10485147
  |   Free atom volume        :     10.44207651
  |   Hirshfeld volume        :      9.25925601
  |   Hirshfeld dipole vector :      0.02252624       0.02486728       0.01744445
  |   Hirshfeld dipole moment :      0.03781696
  |   Hirshfeld second moments:      0.04603816      -0.01880724       0.00367864
  |                                 -0.01880724       0.04087847      -0.01347856
  |                                  0.00367864      -0.01347856       0.06879919
  ----------------------------------------------------------------------
  | Atom    10: H
  |   Hirshfeld charge        :      0.12910573
  |   Free atom volume        :     10.44207651
  |   Hirshfeld volume        :      9.82369735
  |   Hirshfeld dipole vector :     -0.01168216       0.00178748      -0.07737304
  |   Hirshfeld dipole moment :      0.07827040
  |   Hirshfeld second moments:      0.05193894      -0.00038007       0.01065146
  |                                 -0.00038007       0.06880348       0.00963250
  |                                  0.01065146       0.00963250       0.04715281
  ----------------------------------------------------------------------
  | Atom    11: O
  |   Hirshfeld charge        :     -0.23180524
  |   Free atom volume        :     23.95238533
  |   Hirshfeld volume        :     22.24550979
  |   Hirshfeld dipole vector :     -0.01627823      -0.02181087       0.03763008
  |   Hirshfeld dipole moment :      0.04644048
  |   Hirshfeld second moments:      0.05459234      -0.02006674       0.00735113
  |                                 -0.02006674       0.03347995       0.03548584
  |                                  0.00735113       0.03548584      -0.00251420
  ----------------------------------------------------------------------
  | Atom    12: H
  |   Hirshfeld charge        :      0.09276948
  |   Free atom volume        :     10.44207651
  |   Hirshfeld volume        :      9.56247164
  |   Hirshfeld dipole vector :     -0.00383879       0.01816233       0.03848597
  |   Hirshfeld dipole moment :      0.04272910
  |   Hirshfeld second moments:      0.06780131      -0.00425351       0.00055662
  |                                 -0.00425351       0.04087390      -0.00999394
  |                                  0.00055662      -0.00999394       0.02435253
  ----------------------------------------------------------------------
  | Atom    13: H
  |   Hirshfeld charge        :      0.11746730
  |   Free atom volume        :     10.44207651
  |   Hirshfeld volume        :     10.43034122
  |   Hirshfeld dipole vector :      0.05150952      -0.04748415       0.00878852
  |   Hirshfeld dipole moment :      0.07060604
  |   Hirshfeld second moments:      0.03877503       0.00575557      -0.00346831
  |                                  0.00575557       0.04164993       0.01649030
  |                                 -0.00346831       0.01649030       0.04224172
  ----------------------------------------------------------------------
  | Atom    14: O
  |   Hirshfeld charge        :     -0.22186757
  |   Free atom volume        :     23.95238533
  |   Hirshfeld volume        :     21.70085090
  |   Hirshfeld dipole vector :     -0.00744605       0.00287373      -0.01553837
  |   Hirshfeld dipole moment :      0.01746834
  |   Hirshfeld second moments:      0.02909980      -0.00957953       0.00426905
  |                                 -0.00957953       0.03508824      -0.00616082
  |                                  0.00426905      -0.00616082       0.06572557
  ----------------------------------------------------------------------
  | Atom    15: H
  |   Hirshfeld charge        :      0.09816159
  |   Free atom volume        :     10.44207651
  |   Hirshfeld volume        :     11.35070909
  |   Hirshfeld dipole vector :      0.00341760      -0.00954022       0.04752879
  |   Hirshfeld dipole moment :      0.04859714
  |   Hirshfeld second moments:      0.02386129      -0.01025105      -0.00373013
  |                                 -0.01025105       0.03348095       0.00061726
  |                                 -0.00373013       0.00061726       0.00778627
  ----------------------------------------------------------------------
  | Atom    16: H
  |   Hirshfeld charge        :      0.08563501
  |   Free atom volume        :     10.44207651
  |   Hirshfeld volume        :      9.39929694
  |   Hirshfeld dipole vector :     -0.01709987       0.01713058      -0.00904780
  |   Hirshfeld dipole moment :      0.02584037
  |   Hirshfeld second moments:      0.03201773       0.01320566      -0.01300003
  |                                  0.01320566       0.03673438       0.00673282
  |                                 -0.01300003       0.00673282       0.06591458
  ----------------------------------------------------------------------
  | Atom    17: O
  |   Hirshfeld charge        :     -0.23608298
  |   Free atom volume        :     23.95238533
  |   Hirshfeld volume        :     21.78511565
  |   Hirshfeld dipole vector :     -0.01282837      -0.00352239       0.00924802
  |   Hirshfeld dipole moment :      0.01620186
  |   Hirshfeld second moments:      0.05805777       0.02109310       0.00111563
  |                                  0.02109310       0.03485581       0.00728366
  |                                  0.00111563       0.00728366       0.03873123
  ----------------------------------------------------------------------
  | Atom    18: H
  |   Hirshfeld charge        :      0.09592597
  |   Free atom volume        :     10.44207651
  |   Hirshfeld volume        :     12.21924889
  |   Hirshfeld dipole vector :      0.03377774       0.02246797       0.01251539
  |   Hirshfeld dipole moment :      0.04245445
  |   Hirshfeld second moments:      0.00723196      -0.00438076      -0.01013371
  |                                 -0.00438076      -0.00241212       0.00046883
  |                                 -0.01013371       0.00046883       0.01885739
  ----------------------------------------------------------------------
  | Atom    19: H
  |   Hirshfeld charge        :      0.08523778
  |   Free atom volume        :     10.44207651
  |   Hirshfeld volume        :      9.36088656
  |   Hirshfeld dipole vector :     -0.03149939      -0.01497250       0.01504851
  |   Hirshfeld dipole moment :      0.03798480
  |   Hirshfeld second moments:      0.04696191      -0.00152073       0.01911870
  |                                 -0.00152073       0.05513232       0.01131405
  |                                  0.01911870       0.01131405       0.04155950
  ----------------------------------------------------------------------
  | Atom    20: O
  |   Hirshfeld charge        :     -0.22290075
  |   Free atom volume        :     23.95238533
  |   Hirshfeld volume        :     22.01534340
  |   Hirshfeld dipole vector :      0.00342640      -0.01951819       0.00825986
  |   Hirshfeld dipole moment :      0.02146917
  |   Hirshfeld second moments:      0.03533779       0.00275277       0.00248256
  |                                  0.00275277       0.05299616      -0.02067392
  |                                  0.00248256      -0.02067392       0.02678021
  ----------------------------------------------------------------------
  | Atom    21: H
  |   Hirshfeld charge        :      0.09181428
  |   Free atom volume        :     10.44207651
  |   Hirshfeld volume        :      9.64196148
  |   Hirshfeld dipole vector :      0.02864140      -0.03183886       0.01401910
  |   Hirshfeld dipole moment :      0.04506194
  |   Hirshfeld second moments:      0.03519451       0.01057361      -0.01093846
  |                                  0.01057361       0.05364933       0.00095870
  |                                 -0.01093846       0.00095870       0.04532592
  ----------------------------------------------------------------------
  | Atom    22: H
  |   Hirshfeld charge        :      0.08064087
  |   Free atom volume        :     10.44207651
  |   Hirshfeld volume        :     13.09311880
  |   Hirshfeld dipole vector :      0.00958631       0.02061374      -0.01346206
  |   Hirshfeld dipole moment :      0.02642065
  |   Hirshfeld second moments:      0.00098875      -0.01188410       0.00568070
  |                                 -0.01188410      -0.02123565       0.00309142
  |                                  0.00568070       0.00309142      -0.01318751
  ----------------------------------------------------------------------
  | Atom    23: O
  |   Hirshfeld charge        :     -0.24413312
  |   Free atom volume        :     23.95238533
  |   Hirshfeld volume        :     22.29446792
  |   Hirshfeld dipole vector :      0.03030305       0.02058098       0.00847164
  |   Hirshfeld dipole moment :      0.03759815
  |   Hirshfeld second moments:      0.01311875      -0.03683777      -0.03413380
  |                                 -0.03683777       0.02769182      -0.00505825
  |                                 -0.03413380      -0.00505825       0.04037726
  ----------------------------------------------------------------------
  | Atom    24: H
  |   Hirshfeld charge        :      0.11054480
  |   Free atom volume        :     10.44207651
  |   Hirshfeld volume        :     10.48649331
  |   Hirshfeld dipole vector :     -0.03784374       0.05466276       0.03950621
  |   Hirshfeld dipole moment :      0.07733632
  |   Hirshfeld second moments:      0.04076294      -0.00634546      -0.00920502
  |                                 -0.00634546       0.03711925      -0.01054714
  |                                 -0.00920502      -0.01054714       0.04466632
  ----------------------------------------------------------------------
  | Atom    25: H
  |   Hirshfeld charge        :      0.09621262
  |   Free atom volume        :     10.44207651
  |   Hirshfeld volume        :      9.68896567
  |   Hirshfeld dipole vector :      0.02103346       0.01695143      -0.03155100
  |   Hirshfeld dipole moment :      0.04153580
  |   Hirshfeld second moments:      0.04136894      -0.02179374       0.00620930
  |                                 -0.02179374       0.05088411       0.01148231
  |                                  0.00620930       0.01148231       0.03618638
  ----------------------------------------------------------------------


------------------------------------------------------------------------------
  Final output of selected total energy values:

  The following output summarizes some interesting total energy values
  at the end of a run (AFTER all relaxation, molecular dynamics, etc.).

  | Total energy of the DFT / Hartree-Fock s.c.f. calculation      :         -16680.437332744 eV
  | Final zero-broadening corrected energy (caution - metals only) :         -16680.440153692 eV
  | For reference only, the value of 1 Hartree used in FHI-aims is :             27.211384500 eV

  Before relying on these values, please be sure to understand exactly which
  total energy value is referred to by a given number. Different objects may
  all carry the same name 'total energy'. Definitions:

  Total energy of the DFT / Hartree-Fock s.c.f. calculation:
  | Note that this energy does not include ANY quantities calculated after the
  | s.c.f. cycle, in particular not ANY RPA, MP2, etc. many-body perturbation terms.

  Final zero-broadening corrected energy:
  | For metallic systems only, a broadening of the occupation numbers at the Fermi
  | level can be extrapolated back to zero broadening by an electron-gas inspired
  | formula. For all systems that are not real metals, this value can be
  | meaningless and should be avoided.

------------------------------------------------------------------------------

------------------------------------------------------------
          Leaving FHI-aims.
          Date     :  20150727, Time     :  114232.389

          Computational steps:
          | Number of self-consistency cycles          :           16

          Detailed time accounting                     :  max(cpu_time)    wall_clock(cpu1)
          | Total time                                 :      115.532 s         115.649 s
          | Preparation time                           :        0.177 s           0.524 s
          | Grid partitioning                          :        0.244 s           0.253 s
          | Preloading free-atom quantities on grid    :        0.014 s           0.013 s
          | Free-atom superposition energy             :        0.162 s           0.162 s
          | Total time for integrations                :       52.338 s          52.339 s
          | Total time for solution of K.-S. equations :        3.584 s           3.636 s
          | Total time for density & force components  :       40.409 s          40.402 s
          | Total time for mixing                      :        0.357 s           0.361 s
          | Total time for Hartree multipole update    :        0.138 s           0.139 s
          | Total time for Hartree multipole sum       :       17.016 s          17.014 s
          | Total time for total energy evaluation     :        0.006 s           0.023 s
          | Total time for scaled ZORA corrections     :        0.000 s           0.000 s
          | Total time for TS (2009) vdW correction    :        0.141 s           0.147 s

          Have a nice day.
------------------------------------------------------------
