  MPI-parallelism will be employed.
------------------------------------------------------------
          Invoking FHI-aims ...
          Version 081213
          Compiled on 2013/08/29 at 17:41:06 on host generoso.

          When using FHI-aims, please cite the following reference:

          Volker Blum, Ralf Gehrke, Felix Hanke, Paula Havu,
          Ville Havu, Xinguo Ren, Karsten Reuter, and Matthias Scheffler,
          'Ab Initio Molecular Simulations with Numeric Atom-Centered Orbitals: FHI-aims',
          Computer Physics Communications 180, 2175-2196 (2009)

          For any questions about FHI-aims, please visit the aimsclub website
          with its forums and wiki. Contributions to both the forums and the
          wiki are warmly encouraged - they are for you, and everyone is welcome there.

------------------------------------------------------------

  Date     :  20150727, Time     :  123833.451
  Time zero on CPU 1             :   0.419930000000000E-01  s.
  Internal wall clock time zero  :           207232713.451  s.

  Using        8 parallel tasks.
  Task        0 on host gen59 reporting.
  Task        1 on host gen59 reporting.
  Task        2 on host gen59 reporting.
  Task        3 on host gen59 reporting.
  Task        4 on host gen59 reporting.
  Task        5 on host gen59 reporting.
  Task        6 on host gen59 reporting.
  Task        7 on host gen59 reporting.

  Performing system and environment tests:
  | Environment variable OMP_NUM_THREADS correctly set to 1.
  | Checking for scalapack...
  | No scalapack compiled in.

  Obtaining array dimensions for all initial allocations:
  
  -----------------------------------------------------------------------
  Parsing control.in (first pass over file, find array dimensions only).
  The contents of control.in will be repeated verbatim below
  unless switched off by setting 'verbatim_writeout .false.' .
  in the first line of control.in .
  -----------------------------------------------------------------------
  
  #########################################################################################
  #
  #  Volker Blum, FHI 2008 : Test run input file control.in
  #
  #########################################################################################
  #
  #  Physical model
  #
    xc                 rpbe
    spin               none
    relativistic       atomic_zora scalar
    charge             0.
   vdw_correction_hirshfeld
  #
  #  SCF convergence
  #
    occupation_type    gaussian 0.01
    mixer              pulay
      n_max_pulay        10
      charge_mix_param   0.1
    sc_accuracy_rho    5E-5
    sc_accuracy_eev    5E-3
    sc_accuracy_etot   5E-6
    sc_iter_limit      3000
  #
  #  Eigenvalue solver
  #
    KS_method          lapack
      empty_states       8
      basis_threshold    0.e-5
  #
  #  Efficiency
  #
  #   all previous settings are now default, except stratmann still
  #   undecided. Continue to handle stratmann with care, if at all.
  #
  #  partition_type stratmann
    partition_type rho_r2
  #  hartree_partition_type stratmann
  #
  #  Oprions for large clusters (100's of atoms: memory saving / better scaling)
  #
  # for periodic systems:
  #
    density_update_method orbital
    packed_matrix_format none
  #  k_grid 6 6 6
  #  output k_eigenvalue 1
  #  distributed_spline_storage .true.
  #
  #  Relaxation
  #
  #  relax_geometry   bfgs 5.e-3
    sc_accuracy_forces 5.E-4
    final_forces_cleaned .true.
  #
  #  Output options
  #
  #  output mulliken
    output Hirshfeld
  #  output dipole
  
  #harmonic_length_scale 0.001
  
  ################################################################################
  #
  #  FHI-aims code project
  #  VB, Fritz-Haber Institut, 2007
  #
  #  Suggested "safe" defaults for H atom (to be pasted into control.in file)
  #  Basis constructed for a non-relativistic H2 molecule using the
  #  PW-LDA functional.
  #
  ################################################################################
    species        H
  #     global species definitions
      nucleus             1
      cut_pot             4.0  2.0  1.0
      cut_free_atom       finite 8.0
      logarithmic         0.00010000 100.00  1.0123
      basis_dep_cutoff    1d-4  # 1d-4 is safe default - please check 5d-4 if you wish!
      radial_base         24 7.0
      radial_multiplier   2
      angular_grids       specified
        division   0.2783  110
        division   0.3822  194
        division   0.5626  302
  #      division   0.5922  434
  #      division   0.6227  590
  #      division   0.7206  770
        outer_grid  302
      l_hartree           4
  ################################################################################
  #
  #  Definition of "minimal" basis
  #
  ################################################################################
  #     valence basis states
      valence      1  s   1.
  #     ion occupancy
      ion_occ      1  s   0.5
  ################################################################################
  #
  #  Suggested additional basis functions. For production calculations,
  #  uncomment them one after another (the most important basis functions are
  #  listed first).
  #
  ################################################################################
  #  "First tier" - improvements: -1014.90 meV to -62.69 meV
       hydro 2 s 2.1
       hydro 2 p 3.5
  #  "Second tier" - improvements: -12.89 meV to -1.83 meV
       hydro 1 s 0.85
       hydro 2 p 3.7
       hydro 2 s 1.2
       hydro 3 d 7
  #  "Third tier" - improvements: -0.25 meV to -0.12 meV
  #     hydro 4 f 11.2
  #     hydro 3 p 4.8
  #     hydro 4 d 9
  #     hydro 3 s 3.2
  
  ################################################################################
  #
  #  FHI-aims code project
  #  VB, Fritz-Haber Institut, 2007
  #
  #  Suggested "safe" defaults for O atom (to be pasted into control.in file)
  #  All values have been tested for a non-relativistic, non-spinpolarized O2
  #  molecule using the PW-LDA functional. Validity for PBE is expected.
  #
  #  Constructed for dimers: 1.0 A, 1.208 A, 1.5 A, 2.0 A, 3.0 A
  #
  ################################################################################
    species        O
  #     global species definitions
      nucleus             8
      mass                15.9994
      l_hartree           4
      cut_pot             4.0  2.0  1.0
      cut_free_atom       finite 8.0
      basis_dep_cutoff    1d-4  # 1d-4 is safe default - please check 5d-4 if you wish!
      logarithmic         0.00010000 100.00  1.0123
      radial_base         36 7.0
      radial_multiplier   2
       angular_grids specified
        division   0.4087  110
        division   0.5181  194
        division   0.6184  302
  #      division   0.7315  434
  #      division   0.7934  590
  #      division   0.9656  770
  #      division   1.4041  974
  #      outer_grid 974
        outer_grid 302
  ################################################################################
  #
  #  Definition of "minimal" basis
  #
  ################################################################################
  #     valence basis states
      valence      2  s   2.
      valence      2  p   4.
  #     ion occupancy
      ion_occ      2  s   1.
      ion_occ      2  p   3.
  ################################################################################
  #
  #  Suggested additional basis functions. For production calculations,
  #  uncomment them one after another (the most important basis functions are
  #  listed first).
  #
  ################################################################################
  #  "First tier" - improvements: -699.05 meV to -159.38 meV
       hydro 2 p 1.8
       hydro 3 d 7.6
       hydro 3 s 6.4
  #  "Second tier" - improvements: -49.91 meV to -5.39 meV
       hydro 4 f 11.6
       hydro 3 p 6.2
       hydro 3 d 5.6
       hydro 5 g 17.6
       hydro 1 s 0.75
  #  "Third tier" - improvements: -2.83 meV to -0.50 meV
  #     ionic 2 p auto
  #     hydro 4 f 10.8
  #     hydro 4 d 4.7
  #     hydro 2 s 6.8
  #  "Fourth tier" - improvements: -0.40 meV to -0.12 meV
  #     hydro 3 p 5
  #     hydro 3 s 3.3
  #     hydro 5 g 15.6
  #     hydro 4 f 17.6
  #     hydro 4 d 14
  # Further basis functions - -0.08 meV and below
  #     hydro 3 s 2.1
  #     hydro 4 d 11.6
  #     hydro 3 p 16
  #     hydro 2 s 17.2
  
  
  -----------------------------------------------------------------------
  Completed first pass over input file control.in .
  -----------------------------------------------------------------------
  
  
  -----------------------------------------------------------------------
  Parsing geometry.in (first pass over file, find array dimensions only).
  The contents of geometry.in will be repeated verbatim below
  unless switched off by setting 'verbatim_writeout .false.' .
  in the first line of geometry.in .
  -----------------------------------------------------------------------
  
  atom      -4.053030000      0.065001000     -1.525160000  O
  atom      -4.566710000      0.974813000     -1.912820000  H
  atom      -3.067820000      0.330172000     -1.477310000  H
  atom      -4.370360000     -0.049164000     -0.572274000  H
  atom      -5.293160000      2.192130000     -2.328800000  O
  atom      -4.829300000      2.988660000     -1.973850000  H
  atom      -5.428570000      2.328640000     -3.235170000  H
  atom      -1.645860000      0.870179000     -1.502250000  O
  atom      -1.568890000      1.501730000     -0.721051000  H
  atom      -0.824432000      0.282220000     -1.377720000  H
  atom      -3.818880000      2.024990000      2.187990000  O
  atom      -3.690880000      1.961360000      3.202150000  H
  atom      -4.546490000      2.751300000      2.045370000  H
  atom      -5.628340000      3.730740000      1.385610000  O
  atom      -6.090650000      4.418470000      1.860350000  H
  atom      -5.158540000      4.200260000      0.615875000  H
  
  -----------------------------------------------------------------------
  Completed first pass over input file geometry.in .
  -----------------------------------------------------------------------
  
 
  Basic array size parameters: 
  | Number of species                 :        2
  | Number of atoms                   :       16
  | Max. basis fn. angular momentum   :        4
  | Max. atomic/ionic basis occupied n:        2
  | Max. number of basis fn. types    :        2
  | Max. radial fns per species/type  :        8
  | Max. logarithmic grid size        :     1301
  | Max. radial integration grid size :       73
  | Max. angular integration grid size:      302
  | Max. angular grid division number :        8
  | Radial grid for Hartree potential :     1301
  | Number of spin channels           :        1

------------------------------------------------------------
          Reading file control.in.
------------------------------------------------------------
  XC: Using RPBE gradient-corrected functionals.
  Spin treatment: No spin polarisation.
  Scalar relativistic treatment of kinetic energy: on-site free-atom approximation to ZORA.
  Charge =   0.000000E+00: Neutral system requested explicitly.
  Using non-empirical van der Waals correction (Hirshfeld partitioning):
  Occupation type: Gaussian broadening, width =   0.100000E-01 eV.
  Using pulay charge density mixing.
  Pulay mixing - number of memorized iterations:   10
  Charge density mixing - mixing parameter:     0.1000
  Convergence accuracy of self-consistent charge density: 0.5000E-04
  Convergence accuracy of sum of eigenvalues: 0.5000E-02
  Convergence accuracy of total energy: 0.5000E-05
  Maximum number of s.-c. iterations  :  3000
  Kohn-Sham eigenvalues and eigenfunctions calculated by lapack diagonalisation (D&C).
  Number of empty states per atom:        8
  Threshold for basis singularities: 0.0000E+00
  Partition function in integrals calculations: rho / r^2
 Using packed matrix format           0
  Convergence accuracy of forces: 0.5000E-03
  Cleaning forces before final output.
  Hirshfeld charge analysis will be performed.
 
  Reading configuration options for species H                   .
  | Found nuclear charge :   1.0000
  | Found cutoff potl. onset [A], width [A], scale factor :    4.00000    2.00000    1.00000
  | Found cutoff specification for free atom: Cutoff potential begins at    8.00000 A.
  | Found logarithmic grid data [bohr] : 0.1000E-03 0.1000E+03 0.1012E+01
  | Threshold for basis-dependent cutoff potential is   0.100000E-03
  | Found data for basic radial integration grid :    24 points, outermost radius =    7.000 A
  | Found multiplier for basic radial grid :   2
  | Found angular grid specification: user-specified.
  | Specified grid contains     4 separate shells.
  | Check grid settings after all constraints further below.
  | Found l_max for Hartree potential  :   4
  | Found free-atom valence shell :  1 s   1.000
  | No ionic wave fns used. Skipping ion_occ.
  | Found hydrogenic basis function :  2 s   2.100
  | Found hydrogenic basis function :  2 p   3.500
  | Found hydrogenic basis function :  1 s   0.850
  | Found hydrogenic basis function :  2 p   3.700
  | Found hydrogenic basis function :  2 s   1.200
  | Found hydrogenic basis function :  3 d   7.000
  Species H                   : Missing cutoff potential type.
  Defaulting to exp(1/x)/(1-x)^2 type cutoff potential.
  Species H : On-site basis accuracy parameter (for Gram-Schmidt orthonormalisation) not specified.
  Using default value basis_acc =  0.1000000E-03.
  Species H                   : Using default innermost maximum threshold i_radial=  2 for radial functions.
  Species H                   : Basic radial grid will be enhanced according to radial_multiplier =   2, to contain    49 grid points.
 
  Reading configuration options for species O                   .
  | Found nuclear charge :   8.0000
  | Found atomic mass :    15.9994000000000      amu
  | Found l_max for Hartree potential  :   4
  | Found cutoff potl. onset [A], width [A], scale factor :    4.00000    2.00000    1.00000
  | Found cutoff specification for free atom: Cutoff potential begins at    8.00000 A.
  | Threshold for basis-dependent cutoff potential is   0.100000E-03
  | Found logarithmic grid data [bohr] : 0.1000E-03 0.1000E+03 0.1012E+01
  | Found data for basic radial integration grid :    36 points, outermost radius =    7.000 A
  | Found multiplier for basic radial grid :   2
  | Found angular grid specification: user-specified.
  | Specified grid contains     4 separate shells.
  | Check grid settings after all constraints further below.
  | Found free-atom valence shell :  2 s   2.000
  | Found free-atom valence shell :  2 p   4.000
  | No ionic wave fns used. Skipping ion_occ.
  | No ionic wave fns used. Skipping ion_occ.
  | Found hydrogenic basis function :  2 p   1.800
  | Found hydrogenic basis function :  3 d   7.600
  | Found hydrogenic basis function :  3 s   6.400
  | Found hydrogenic basis function :  4 f  11.600
  | Found hydrogenic basis function :  3 p   6.200
  | Found hydrogenic basis function :  3 d   5.600
  | Found hydrogenic basis function :  5 g  17.600
  | Found hydrogenic basis function :  1 s   0.750
  Species O                   : Missing cutoff potential type.
  Defaulting to exp(1/x)/(1-x)^2 type cutoff potential.
  Species O : On-site basis accuracy parameter (for Gram-Schmidt orthonormalisation) not specified.
  Using default value basis_acc =  0.1000000E-03.
  Species O                   : Using default innermost maximum threshold i_radial=  2 for radial functions.
  Species O                   : Basic radial grid will be enhanced according to radial_multiplier =   2, to contain    73 grid points.
 
  Finished reading input file 'control.in'. Consistency checks are next.
 
  Target number of points in a grid batch is not set. Defaulting to  100
  Method for grid partitioning is not set. Defaulting to parallel hash+maxmin partitioning.
  Batch size limit is not set. Defaulting to    200
  By default, will store active basis functions for each batch.
  If in need of memory, prune_basis_once .false. can be used to disable this option.
  communication_type for Hartree potential was not specified.
  Defaulting to calc_hartree .
  Pulay mixer: Number of initial linear mixing iterations not set.
  Defaulting to    0 iterations.
  Work space size for distributed Hartree potential not set.
  Defaulting to   0.200000E+03 MB.
  Algorithm-dependent basis array size parameters:
  | n_max_pulay                         :       10
  Geometry relaxation not requested: no relaxation will be performed.
  Handling of forces: Unphysical translation and rotation will be removed from forces.
  No accuracy limit for integral partition fn. given. Defaulting to 0.1000E-14.
  No threshold value for u(r) in integrations given. Defaulting to 0.1000E-05.
  No accuracy for occupation numbers given. Defaulting to 0.1000E-07.
  No threshold value for occupation numbers given. Defaulting to 0.0000E+00.
  No accuracy for fermi level given. Defaulting to 0.1000E-19.
  Maximum # of iterations to find E_F not set. Defaulting to  200.
  Will not use alltoall communication since running on < 1024 CPUs.
  Partitioning for Hartree potential was not defined. Using partition_type for integrals.
  | Reporting present value of keyword multip_moments_threshold  :       0.10000000E-09
  | This value may affect high angular momentum components of the Hartree potential in periodic systems.
  No q(lm)/r^(l+1) cutoff set for long-range Hartree potential.
  | Using default value of  0.100000E-09 .
  | Verify using the multipole_threshold keyword.
  Defaulting to new monopole extrapolation.
  Density update method: Loop over occupied states selected for charge density update.
------------------------------------------------------------


------------------------------------------------------------
          Reading geometry description geometry.in.
------------------------------------------------------------
  Input structure read successfully.
  The structure contains       16 atoms,  and a total of         51.000 electrons.

  Input geometry:
  | No unit cell requested.
  | Atomic structure:
  |       Atom                x [A]            y [A]            z [A]
  |    1: Species O             -4.053030         0.065001        -1.525160
  |    2: Species H             -4.566710         0.974813        -1.912820
  |    3: Species H             -3.067820         0.330172        -1.477310
  |    4: Species H             -4.370360        -0.049164        -0.572274
  |    5: Species O             -5.293160         2.192130        -2.328800
  |    6: Species H             -4.829300         2.988660        -1.973850
  |    7: Species H             -5.428570         2.328640        -3.235170
  |    8: Species O             -1.645860         0.870179        -1.502250
  |    9: Species H             -1.568890         1.501730        -0.721051
  |   10: Species H             -0.824432         0.282220        -1.377720
  |   11: Species O             -3.818880         2.024990         2.187990
  |   12: Species H             -3.690880         1.961360         3.202150
  |   13: Species H             -4.546490         2.751300         2.045370
  |   14: Species O             -5.628340         3.730740         1.385610
  |   15: Species H             -6.090650         4.418470         1.860350
  |   16: Species H             -5.158540         4.200260         0.615875
  |

  | The smallest distance between any two atoms is         0.92654057 AA.
  |
  | The first atom of this pair is atom number                      5 .
  | The second atom of this pair is atom number                     7 .

  Structure-dependent array size parameters: 
  | Maximum number of distinct radial functions  :       18
  | Maximum number of basis functions            :      360
  | Number of Kohn-Sham states (occupied + empty):       90
------------------------------------------------------------

------------------------------------------------------------
          Preparing all fixed parts of the calculation.
------------------------------------------------------------
  Determining machine precision:
    2.225073858507201E-308
  Setting up grids for atomic and cluster calculations.

  Creating wave function, potential, and density for free atoms.

  Species: H

  List of occupied orbitals and eigenvalues:
    n    l              occ      energy [Ha]    energy [eV]
    1    0           1.0000        -0.241408        -6.5691


  Species: O

  List of occupied orbitals and eigenvalues:
    n    l              occ      energy [Ha]    energy [eV]
    1    0           2.0000       -18.944147      -515.4965
    2    0           2.0000        -0.883529       -24.0421
    2    1           4.0000        -0.330176        -8.9845

  Creating fixed part of basis set: Ionic, confined, hydrogenic.
 
  H                    hydrogenic:
 
  List of hydrogenic basis orbitals: 
    n    l      effective z      eigenvalue [eV]  inner max. [A]     outer max. [A]     outer radius [A]   
    2    0         2.100000       -14.9965           0.193241           1.317192           5.372934
    2    1         3.500000       -41.6672           0.602363           0.602363           4.056010
    1    0         0.850000        -9.8292           0.624864           0.624864           5.372934
    2    1         3.700000       -46.5653           0.573616           0.573616           3.909951
    2    0         1.200000        -4.5995           0.334977           2.228160           5.505921
    3    2         7.000000       -74.0753           0.680692           0.680692           3.769152
 
 
  O                    hydrogenic:
 
  List of hydrogenic basis orbitals: 
    n    l      effective z      eigenvalue [eV]  inner max. [A]     outer max. [A]     outer radius [A]   
    2    1         1.800000       -11.0118           1.178546           1.178546           5.432516
    3    2         7.600000       -87.3182           0.624117           0.624117           3.541422
    3    0         6.400000       -61.9209           0.061166           1.081887           4.306510
    4    3        11.600000      -114.4238           0.731621           0.731621           3.584982
    3    1         6.200000       -58.1113           0.255677           1.030255           4.306510
    3    2         5.600000       -47.4081           0.847222           0.847222           4.413102
    5    4        17.600000      -168.5799           0.749730           0.749730           3.372413
    1    0         0.750000        -7.6499           0.705275           0.705275           5.366508
 

  Adding cutoff potential to free-atom effective potential.
  Creating atomic-like basis functions for current effective potential.

  Species H                   :

  List of atomic basis orbitals and eigenvalues:
    n    l      energy [Ha]    energy [eV]    outer radius [A]
    1    0        -0.241374        -6.5681       5.372934


  Species O                   :

  List of atomic basis orbitals and eigenvalues:
    n    l      energy [Ha]    energy [eV]    outer radius [A]
    1    0       -18.944147      -515.4965       1.415745
    2    0        -0.883529       -24.0421       5.048305
    2    1        -0.330173        -8.9845       5.301302

  Assembling full basis from fixed parts.
  | Species H :   atomic orbital   1 s accepted.
  | Species H :    hydro orbital   2 s accepted.
  | Species H :    hydro orbital   1 s accepted.
  | Species H :    hydro orbital   2 s accepted.
  | Species H :    hydro orbital   2 p accepted.
  | Species H :    hydro orbital   2 p accepted.
  | Species H :    hydro orbital   3 d accepted.
  | Species O :   atomic orbital   1 s accepted.
  | Species O :    hydro orbital   3 s accepted.
  | Species O :   atomic orbital   2 s accepted.
  | Species O :    hydro orbital   1 s accepted.
  | Species O :    hydro orbital   3 p accepted.
  | Species O :   atomic orbital   2 p accepted.
  | Species O :    hydro orbital   2 p accepted.
  | Species O :    hydro orbital   3 d accepted.
  | Species O :    hydro orbital   3 d accepted.
  | Species O :    hydro orbital   4 f accepted.
  | Species O :    hydro orbital   5 g accepted.
 
  Basis size parameters after reduction:
  | Total number of radial functions:       18
  | Total number of basis functions :      360
 
  Testing on-site integration grid accuracy.
  |  Species  Function  <phi|h_atom|phi> (log., in eV)  <phi|h_atom|phi> (rad., in eV)
           1        1                 -6.5683835025                 -6.5684759159
           1        2                 13.3711789951                 13.3708738703
           1        3                 23.6590910787                 23.6532055418
           1        4                 16.2963827186                 16.1870710655 ***
           1        5                 28.7627214838                 28.7627215090
           1        6                 59.5965249172                 59.5965950857
           1        7                 60.2220506392                 60.2220503827
           2        8               -515.4964576505               -515.4964530710
           2        9                 15.3030791347                 15.3030722972
           2       10                -21.7296094581                -21.7296135470
           2       11                 14.2969371730                 14.2969701621
           2       12                 21.0679693190                 21.0679697493
           2       13                 -2.3833606469                 -2.3833613176
           2       14                 13.7067136422                 13.7066766629
           2       15                 45.8013116808                 45.8013116965
           2       16                 52.2309815402                 52.2309831494
           2       17                 85.4120732416                 85.4120732763
           2       18                142.1019167745                142.1019167817
 * Note: Onsite integrals marked "***" above are less accurate than
 * onsite_accuracy_threshold =    0.03000 eV. Usually, this is harmless.
 * When in doubt, tighten the "radial" and/or "radial_multiplier" flags to check.

  Preparing densities etc. for the partition functions (integrals / Hartree potential).

  Preparations completed.
  max(cpu_time)          :      0.174 s.
  Wall clock time (cpu1) :      0.720 s.
------------------------------------------------------------

------------------------------------------------------------
          Begin self-consistency loop: Initialization.

          Date     :  20150727, Time     :  123834.194
------------------------------------------------------------

  Initializing index lists of integration centers etc. from given atomic structure:
  | Number of centers in hartree potential         :        16
  | Number of centers in hartree multipole         :        16
  | Number of centers in electron density summation:        16
  | Number of centers in basis integrals           :        16
  | Number of centers in integrals                 :        16
  Partitioning the integration grid into batches with parallel hashing+maxmin method.
  | Number of batches:     1982
  | Maximal batch size:     181
  | Minimal batch size:      54
  | Average batch size:     105.098
  | Standard deviation of batch sizes:      33.975

  Integration load balanced across     8 MPI tasks.
  Work distribution over tasks is as follows:
  Task     0 has      26028 integration points.
  Task     1 has      26088 integration points.
  Task     2 has      26045 integration points.
  Task     3 has      26052 integration points.
  Task     4 has      26042 integration points.
  Task     5 has      25971 integration points.
  Task     6 has      26051 integration points.
  Task     7 has      26027 integration points.
  Initializing partition tables, free-atom densities, potentials, etc. across the integration grid (initialize_grid_storage).
  | Net number of integration points:   208304
  | of which are non-zero points    :   207752
  Obtaining max. number of non-zero basis functions in each batch (get_n_compute_maxes).
  | Maximal number of non-zero basis functions:      356 in task     0
  | Maximal number of non-zero basis functions:      356 in task     1
  | Maximal number of non-zero basis functions:      356 in task     2
  | Maximal number of non-zero basis functions:      357 in task     3
  | Maximal number of non-zero basis functions:      356 in task     4
  | Maximal number of non-zero basis functions:      355 in task     5
  | Maximal number of non-zero basis functions:      357 in task     6
  | Maximal number of non-zero basis functions:      356 in task     7
  Integrating Hamiltonian matrix: batch-based integration.
  Time summed over all CPUs for integration: real work        7.275 s, elapsed        7.569 s
  Integrating overlap matrix.
  Time summed over all CPUs for integration: real work        3.901 s, elapsed        4.049 s

  Updating Kohn-Sham eigenvalues, eigenvectors, occupation numbers, and Fermi level.
  Solving generalized eigenproblem
  Updating Kohn-Sham eigenvalues and eigenfunctions.
  Transforming overlap matrix and checking for singularities.
  Overlap matrix is nonsingular:
  | Lowest eigenvalue:  0.248682E-03
  Solving real generalised eigenvalue problem by standard LAPACK (fast)
  Determining occupation numbers for Kohn-Sham eigenstates.
  | Chemical potential (Fermi level) in eV                 : -.27783222E+01
  | Error in electron count due to remaining E_F inaccuracy: 0.14995791E-08
  | Maximum occupation number of highest empty state:  0.00E+00

  Writing Kohn-Sham eigenvalues.

  State    Occupation    Eigenvalue [Ha]    Eigenvalue [eV]
      1       2.00000         -19.065145         -518.78898
      2       2.00000         -19.064863         -518.78131
      3       2.00000         -19.050516         -518.39092
      4       2.00000         -19.042477         -518.17217
      5       2.00000         -19.028888         -517.80240
      6       2.00000          -1.129179          -30.72652
      7       2.00000          -1.114491          -30.32685
      8       2.00000          -1.098970          -29.90449
      9       2.00000          -1.081724          -29.43521
     10       2.00000          -1.059642          -28.83433
     11       2.00000          -0.650923          -17.71253
     12       2.00000          -0.639875          -17.41188
     13       2.00000          -0.628209          -17.09443
     14       2.00000          -0.622176          -16.93027
     15       2.00000          -0.602396          -16.39203
     16       2.00000          -0.600035          -16.32779
     17       2.00000          -0.532085          -14.47876
     18       2.00000          -0.518388          -14.10606
     19       2.00000          -0.508545          -13.83821
     20       2.00000          -0.485448          -13.20971
     21       2.00000          -0.482888          -13.14005
     22       2.00000          -0.452610          -12.31613
     23       2.00000          -0.438274          -11.92604
     24       2.00000          -0.435797          -11.85865
     25       2.00000          -0.417261          -11.35424
     26       1.00000          -0.102101           -2.77832
     27       0.00000          -0.076399           -2.07893
     28       0.00000          -0.063266           -1.72155
     29       0.00000          -0.052538           -1.42964
     30       0.00000          -0.036680           -0.99810
     31       0.00000          -0.018818           -0.51205
     32       0.00000          -0.005003           -0.13615
     33       0.00000           0.024270            0.66042
     34       0.00000           0.034581            0.94101
     35       0.00000           0.046714            1.27114
     36       0.00000           0.057444            1.56313
     37       0.00000           0.068884            1.87443
     38       0.00000           0.075297            2.04893
     39       0.00000           0.082321            2.24007
     40       0.00000           0.092333            2.51250
     41       0.00000           0.096331            2.62131
     42       0.00000           0.101028            2.74912
     43       0.00000           0.106237            2.89085
     44       0.00000           0.109330            2.97502
     45       0.00000           0.120043            3.26653
     46       0.00000           0.128314            3.49159
     47       0.00000           0.132800            3.61368
     48       0.00000           0.138590            3.77123
     49       0.00000           0.151250            4.11572
     50       0.00000           0.162269            4.41556
     51       0.00000           0.171831            4.67577
     52       0.00000           0.191821            5.21971
     53       0.00000           0.193826            5.27428
     54       0.00000           0.209246            5.69387
     55       0.00000           0.227903            6.20155
     56       0.00000           0.242111            6.58817
     57       0.00000           0.248752            6.76889
     58       0.00000           0.266698            7.25723
     59       0.00000           0.281014            7.64679
     60       0.00000           0.294868            8.02377
     61       0.00000           0.298191            8.11420
     62       0.00000           0.331591            9.02306
     63       0.00000           0.338463            9.21004
     64       0.00000           0.352075            9.58045
     65       0.00000           0.354986            9.65967
     66       0.00000           0.367670           10.00480
     67       0.00000           0.373541           10.16456
     68       0.00000           0.379399           10.32398
     69       0.00000           0.391451           10.65193
     70       0.00000           0.409219           11.13543
     71       0.00000           0.426047           11.59333
     72       0.00000           0.430944           11.72658
     73       0.00000           0.433285           11.79030
     74       0.00000           0.446486           12.14949
     75       0.00000           0.461467           12.55715
     76       0.00000           0.483560           13.15833
     77       0.00000           0.492438           13.39993
     78       0.00000           0.514773           14.00767
     79       0.00000           0.542354           14.75820
     80       0.00000           0.543510           14.78966
     81       0.00000           0.548738           14.93192
     82       0.00000           0.567930           15.45417
     83       0.00000           0.594233           16.16990
     84       0.00000           0.599772           16.32063
     85       0.00000           0.625621           17.02400
     86       0.00000           0.670348           18.24109
     87       0.00000           0.728135           19.81356
     88       0.00000           0.731814           19.91366
     89       0.00000           0.744714           20.26470
     90       0.00000           0.766236           20.85034

  Highest occupied state (VBM) at     -2.77832217 eV
  | Occupation number:      1.00000000

  Lowest unoccupied state (CBM) at    -2.07892980 eV
  | Occupation number:      0.00000000

  Overall HOMO-LUMO gap:      0.69939237 eV.
  Calculating total energy contributions from superposition of free atom densities.

  Total energy components:
  | Sum of eigenvalues            :        -217.60371062 Ha       -5921.29823834 eV
  | XC energy correction          :         -45.93619576 Ha       -1249.98748536 eV
  | XC potential correction       :          58.70849306 Ha        1597.53937813 eV
  | Free-atom electrostatic energy:        -178.69982248 Ha       -4862.66957968 eV
  | Hartree energy correction     :           0.00000000 Ha           0.00000000 eV
  | van der Waals energy corr.    :           0.00000000 Ha           0.00000000 eV
  | Entropy correction            :          -0.00010367 Ha          -0.00282095 eV
  | ---------------------------
  | Total energy                  :        -383.53123580 Ha      -10436.41592525 eV
  | Total energy, T -> 0          :        -383.53133947 Ha      -10436.41874620 eV  <-- do not rely on this value for anything but (periodic) metals
  | Electronic free energy        :        -383.53144314 Ha      -10436.42156715 eV

  Derived energy quantities:
  | Kinetic energy                :         379.86780068 Ha       10336.72878338 eV
  | Electrostatic energy          :        -717.46284072 Ha      -19523.15722327 eV
  | Energy correction for multipole
  | error in Hartree potential    :           0.00000000 Ha           0.00000000 eV
  | Sum of eigenvalues per atom                           :        -370.08113990 eV
  | Total energy (T->0) per atom                          :        -652.27617164 eV  <-- do not rely on this value for anything but (periodic) metals
  | Electronic free energy per atom                       :        -652.27634795 eV
  Initialize hartree_potential_storage
  Max. number of atoms included in rho_multipole:           16

  End scf initialization - timings             :  max(cpu_time)    wall_clock(cpu1)
  | Time for scf. initialization               :        2.073 s           2.073 s
  | Boundary condition initialization          :        0.000 s           0.001 s
  | Integration                                :        1.456 s           1.456 s
  | Solution of K.-S. eqns.                    :        0.212 s           0.215 s
  | Grid partitioning                          :        0.166 s           0.165 s
  | Preloading free-atom quantities on grid    :        0.014 s           0.013 s
  | Free-atom superposition energy             :        0.072 s           0.072 s
  | Total energy evaluation                    :        0.001 s           0.001 s
------------------------------------------------------------

------------------------------------------------------------
          Begin self-consistency iteration #    1

  Date     :  20150727, Time     :  123836.267
------------------------------------------------------------
  Evaluating new KS density.
  Integration grid: deviation in total charge (<rho> - N_e) =   1.499579E-09
  Pulay mixing of updated and previous charge densities.

  Evaluating partitioned Hartree potential by multipole expansion.
  | Analytical far-field extrapolation by fixed multipoles:
  | Hartree multipole sum: apparent total charge =  -0.160297E-05
  Summing up the Hartree potential.
  Time summed over all CPUs for potential: real work        2.889 s, elapsed        2.904 s
  | RMS charge density error from multipole expansion :   0.163633E-02

  Integrating Hamiltonian matrix: batch-based integration.
  Time summed over all CPUs for integration: real work        7.254 s, elapsed        7.534 s

  Updating Kohn-Sham eigenvalues, eigenvectors, occupation numbers, and Fermi level.
  Solving generalized eigenproblem
  Updating Kohn-Sham eigenvalues and eigenfunctions.
  Solving real generalised eigenvalue problem by standard LAPACK (fast)
  Determining occupation numbers for Kohn-Sham eigenstates.
  | Chemical potential (Fermi level) in eV                 : -.25679417E+01
  | Error in electron count due to remaining E_F inaccuracy: 0.28990144E-11
  | Maximum occupation number of highest empty state:  0.00E+00

  Writing Kohn-Sham eigenvalues.

  State    Occupation    Eigenvalue [Ha]    Eigenvalue [eV]
      1       2.00000         -19.011325         -517.32448
      2       2.00000         -18.995846         -516.90326
      3       2.00000         -18.977074         -516.39247
      4       2.00000         -18.976114         -516.36633
      5       2.00000         -18.943084         -515.46755
      6       2.00000          -1.101898          -29.98417
      7       2.00000          -1.083842          -29.49285
      8       2.00000          -1.061439          -28.88322
      9       2.00000          -1.050792          -28.59350
     10       2.00000          -1.013587          -27.58112
     11       2.00000          -0.623047          -16.95397
     12       2.00000          -0.617535          -16.80398
     13       2.00000          -0.599646          -16.31721
     14       2.00000          -0.595285          -16.19853
     15       2.00000          -0.576299          -15.68190
     16       2.00000          -0.562072          -15.29475
     17       2.00000          -0.502792          -13.68166
     18       2.00000          -0.479146          -13.03823
     19       2.00000          -0.477824          -13.00224
     20       2.00000          -0.457054          -12.43709
     21       2.00000          -0.439568          -11.96125
     22       2.00000          -0.419353          -11.41117
     23       2.00000          -0.403318          -10.97484
     24       2.00000          -0.397638          -10.82028
     25       2.00000          -0.369900          -10.06548
     26       1.00000          -0.094370           -2.56794
     27       0.00000          -0.068908           -1.87508
     28       0.00000          -0.054936           -1.49488
     29       0.00000          -0.044953           -1.22323
     30       0.00000          -0.028088           -0.76431
     31       0.00000          -0.012489           -0.33983
     32       0.00000           0.002403            0.06538
     33       0.00000           0.031968            0.86990
     34       0.00000           0.041391            1.12631
     35       0.00000           0.052552            1.43003
     36       0.00000           0.063899            1.73878
     37       0.00000           0.076962            2.09424
     38       0.00000           0.083038            2.25959
     39       0.00000           0.091663            2.49428
     40       0.00000           0.102033            2.77647
     41       0.00000           0.103355            2.81243
     42       0.00000           0.109475            2.97896
     43       0.00000           0.113175            3.07965
     44       0.00000           0.120267            3.27264
     45       0.00000           0.130283            3.54518
     46       0.00000           0.137400            3.73884
     47       0.00000           0.142485            3.87722
     48       0.00000           0.151733            4.12886
     49       0.00000           0.160433            4.36562
     50       0.00000           0.169798            4.62044
     51       0.00000           0.178722            4.86326
     52       0.00000           0.200073            5.44427
     53       0.00000           0.203412            5.53513
     54       0.00000           0.216985            5.90446
     55       0.00000           0.234680            6.38596
     56       0.00000           0.248661            6.76641
     57       0.00000           0.258235            7.02694
     58       0.00000           0.274948            7.48172
     59       0.00000           0.288399            7.84772
     60       0.00000           0.301900            8.21512
     61       0.00000           0.302640            8.23527
     62       0.00000           0.337902            9.19478
     63       0.00000           0.346880            9.43908
     64       0.00000           0.361414            9.83457
     65       0.00000           0.363243            9.88434
     66       0.00000           0.377264           10.26588
     67       0.00000           0.383187           10.42706
     68       0.00000           0.386981           10.53029
     69       0.00000           0.399082           10.85957
     70       0.00000           0.416729           11.33978
     71       0.00000           0.433109           11.78548
     72       0.00000           0.439447           11.95797
     73       0.00000           0.440910           11.99778
     74       0.00000           0.454400           12.36485
     75       0.00000           0.469360           12.77193
     76       0.00000           0.493515           13.42922
     77       0.00000           0.500616           13.62246
     78       0.00000           0.524641           14.27621
     79       0.00000           0.550663           14.98431
     80       0.00000           0.554673           15.09343
     81       0.00000           0.559362           15.22103
     82       0.00000           0.579025           15.75607
     83       0.00000           0.603578           16.42419
     84       0.00000           0.609304           16.58002
     85       0.00000           0.636961           17.33258
     86       0.00000           0.681263           18.53812
     87       0.00000           0.739594           20.12537
     88       0.00000           0.743478           20.23108
     89       0.00000           0.755372           20.55472
     90       0.00000           0.777300           21.15141

  Highest occupied state (VBM) at     -2.56794171 eV
  | Occupation number:      1.00000000

  Lowest unoccupied state (CBM) at    -1.87508174 eV
  | Occupation number:      0.00000000

  Overall HOMO-LUMO gap:      0.69285997 eV.

  Total energy components:
  | Sum of eigenvalues            :        -215.56532619 Ha       -5865.83097574 eV
  | XC energy correction          :         -46.15414111 Ha       -1255.91808002 eV
  | XC potential correction       :          58.99332258 Ha        1605.28998358 eV
  | Free-atom electrostatic energy:        -178.69982248 Ha       -4862.66957968 eV
  | Hartree energy correction     :          -1.98539915 Ha         -54.02545964 eV
  | van der Waals energy corr.    :           0.00000000 Ha           0.00000000 eV
  | Entropy correction            :          -0.00010367 Ha          -0.00282095 eV
  | ---------------------------
  | Total energy                  :        -383.41136635 Ha      -10433.15411149 eV
  | Total energy, T -> 0          :        -383.41147002 Ha      -10433.15693244 eV  <-- do not rely on this value for anything but (periodic) metals
  | Electronic free energy        :        -383.41157369 Ha      -10433.15975339 eV

  Derived energy quantities:
  | Kinetic energy                :         381.19127199 Ha       10372.74227018 eV
  | Electrostatic energy          :        -718.44849723 Ha      -19549.97830166 eV
  | Energy correction for multipole
  | error in Hartree potential    :           0.00016664 Ha           0.00453463 eV
  | Sum of eigenvalues per atom                           :        -366.61443598 eV
  | Total energy (T->0) per atom                          :        -652.07230828 eV  <-- do not rely on this value for anything but (periodic) metals
  | Electronic free energy per atom                       :        -652.07248459 eV

  Self-consistency convergence accuracy:
  | Change of charge density      : 0.6278E+00
  | Change of sum of eigenvalues  : 0.5547E+02 eV
  | Change of total energy        : 0.3262E+01 eV

  End self-consistency iteration #     1       :  max(cpu_time)    wall_clock(cpu1)
  | Time for this iteration                    :        2.022 s           2.021 s
  | Charge density update                      :        0.647 s           0.647 s
  | Density mixing                             :        0.004 s           0.004 s
  | Hartree multipole update                   :        0.005 s           0.005 s
  | Hartree multipole summation                :        0.364 s           0.364 s
  | Integration                                :        0.944 s           0.944 s
  | Solution of K.-S. eqns.                    :        0.057 s           0.057 s
  | Total energy evaluation                    :        0.000 s           0.000 s
------------------------------------------------------------

------------------------------------------------------------
          Begin self-consistency iteration #    2

  Date     :  20150727, Time     :  123838.289
------------------------------------------------------------
  Evaluating new KS density.
  Integration grid: deviation in total charge (<rho> - N_e) =   2.955858E-12
  Pulay mixing of updated and previous charge densities.

  Evaluating partitioned Hartree potential by multipole expansion.
  | Analytical far-field extrapolation by fixed multipoles:
  | Hartree multipole sum: apparent total charge =  -0.523342E-05
  Summing up the Hartree potential.
  Time summed over all CPUs for potential: real work        2.889 s, elapsed        2.904 s
  | RMS charge density error from multipole expansion :   0.661156E-02

  Integrating Hamiltonian matrix: batch-based integration.
  Time summed over all CPUs for integration: real work        7.250 s, elapsed        7.541 s

  Updating Kohn-Sham eigenvalues, eigenvectors, occupation numbers, and Fermi level.
  Solving generalized eigenproblem
  Updating Kohn-Sham eigenvalues and eigenfunctions.
  Solving real generalised eigenvalue problem by standard LAPACK (fast)
  Determining occupation numbers for Kohn-Sham eigenstates.
  | Chemical potential (Fermi level) in eV                 : -.20798961E+01
  | Error in electron count due to remaining E_F inaccuracy: -.11484644E-08
  | Maximum occupation number of highest empty state:  0.00E+00

  Highest occupied state (VBM) at     -6.96859719 eV
  | Occupation number:      2.00000000

  Lowest unoccupied state (CBM) at    -2.07989612 eV
  | Occupation number:      1.00000000

  Overall HOMO-LUMO gap:      4.88870108 eV.

  Total energy components:
  | Sum of eigenvalues            :        -210.71171498 Ha       -5733.75749506 eV
  | XC energy correction          :         -46.69872038 Ha       -1270.73683593 eV
  | XC potential correction       :          59.70356530 Ha        1624.61667152 eV
  | Free-atom electrostatic energy:        -178.69982248 Ha       -4862.66957968 eV
  | Hartree energy correction     :          -6.86902769 Ha        -186.91575350 eV
  | van der Waals energy corr.    :           0.00000000 Ha           0.00000000 eV
  | Entropy correction            :          -0.00010367 Ha          -0.00282095 eV
  | ---------------------------
  | Total energy                  :        -383.27572023 Ha      -10429.46299264 eV
  | Total energy, T -> 0          :        -383.27582390 Ha      -10429.46581359 eV  <-- do not rely on this value for anything but (periodic) metals
  | Electronic free energy        :        -383.27592756 Ha      -10429.46863454 eV

  Derived energy quantities:
  | Kinetic energy                :         383.92051732 Ha       10447.00881434 eV
  | Electrostatic energy          :        -720.49751717 Ha      -19605.73497105 eV
  | Energy correction for multipole
  | error in Hartree potential    :          -0.00020041 Ha          -0.00545352 eV
  | Sum of eigenvalues per atom                           :        -358.35984344 eV
  | Total energy (T->0) per atom                          :        -651.84161335 eV  <-- do not rely on this value for anything but (periodic) metals
  | Electronic free energy per atom                       :        -651.84178966 eV

  Self-consistency convergence accuracy:
  | Change of charge density      : 0.4767E+00
  | Change of sum of eigenvalues  : 0.1321E+03 eV
  | Change of total energy        : 0.3691E+01 eV

  End self-consistency iteration #     2       :  max(cpu_time)    wall_clock(cpu1)
  | Time for this iteration                    :        2.022 s           2.021 s
  | Charge density update                      :        0.645 s           0.645 s
  | Density mixing                             :        0.005 s           0.006 s
  | Hartree multipole update                   :        0.005 s           0.005 s
  | Hartree multipole summation                :        0.364 s           0.364 s
  | Integration                                :        0.945 s           0.944 s
  | Solution of K.-S. eqns.                    :        0.056 s           0.056 s
  | Total energy evaluation                    :        0.000 s           0.000 s
------------------------------------------------------------

------------------------------------------------------------
          Begin self-consistency iteration #    3

  Date     :  20150727, Time     :  123840.310
------------------------------------------------------------
  Evaluating new KS density.
  Integration grid: deviation in total charge (<rho> - N_e) =  -1.148436E-09
  Pulay mixing of updated and previous charge densities.

  Evaluating partitioned Hartree potential by multipole expansion.
  | Analytical far-field extrapolation by fixed multipoles:
  | Hartree multipole sum: apparent total charge =  -0.641263E-05
  Summing up the Hartree potential.
  Time summed over all CPUs for potential: real work        2.889 s, elapsed        2.904 s
  | RMS charge density error from multipole expansion :   0.137091E-01

  Integrating Hamiltonian matrix: batch-based integration.
  Time summed over all CPUs for integration: real work        7.245 s, elapsed        7.534 s

  Updating Kohn-Sham eigenvalues, eigenvectors, occupation numbers, and Fermi level.
  Solving generalized eigenproblem
  Updating Kohn-Sham eigenvalues and eigenfunctions.
  Solving real generalised eigenvalue problem by standard LAPACK (fast)
  Determining occupation numbers for Kohn-Sham eigenstates.
  | Chemical potential (Fermi level) in eV                 : -.20480932E+01
  | Error in electron count due to remaining E_F inaccuracy: -.27711167E-11
  | Maximum occupation number of highest empty state:  0.00E+00

  Highest occupied state (VBM) at     -6.72416915 eV
  | Occupation number:      2.00000000

  Lowest unoccupied state (CBM) at    -2.04809319 eV
  | Occupation number:      1.00000000

  Overall HOMO-LUMO gap:      4.67607596 eV.

  Total energy components:
  | Sum of eigenvalues            :        -211.03338788 Ha       -5742.51065997 eV
  | XC energy correction          :         -46.68659228 Ha       -1270.40681363 eV
  | XC potential correction       :          59.67929649 Ha        1623.95628335 eV
  | Free-atom electrostatic energy:        -178.69982248 Ha       -4862.66957968 eV
  | Hartree energy correction     :          -6.53299647 Ha        -177.77187898 eV
  | van der Waals energy corr.    :           0.00000000 Ha           0.00000000 eV
  | Entropy correction            :          -0.00010367 Ha          -0.00282095 eV
  | ---------------------------
  | Total energy                  :        -383.27350264 Ha      -10429.40264891 eV
  | Total energy, T -> 0          :        -383.27360630 Ha      -10429.40546986 eV  <-- do not rely on this value for anything but (periodic) metals
  | Electronic free energy        :        -383.27370997 Ha      -10429.40829081 eV

  Derived energy quantities:
  | Kinetic energy                :         382.07291868 Ha       10396.73309725 eV
  | Electrostatic energy          :        -718.65982903 Ha      -19555.72893253 eV
  | Energy correction for multipole
  | error in Hartree potential    :          -0.00490988 Ha          -0.13360473 eV
  | Sum of eigenvalues per atom                           :        -358.90691625 eV
  | Total energy (T->0) per atom                          :        -651.83784187 eV  <-- do not rely on this value for anything but (periodic) metals
  | Electronic free energy per atom                       :        -651.83801818 eV

  Self-consistency convergence accuracy:
  | Change of charge density      : 0.2351E+00
  | Change of sum of eigenvalues  : -.8753E+01 eV
  | Change of total energy        : 0.6034E-01 eV

  End self-consistency iteration #     3       :  max(cpu_time)    wall_clock(cpu1)
  | Time for this iteration                    :        2.013 s           2.013 s
  | Charge density update                      :        0.636 s           0.637 s
  | Density mixing                             :        0.008 s           0.007 s
  | Hartree multipole update                   :        0.005 s           0.005 s
  | Hartree multipole summation                :        0.363 s           0.364 s
  | Integration                                :        0.943 s           0.943 s
  | Solution of K.-S. eqns.                    :        0.057 s           0.057 s
  | Total energy evaluation                    :        0.000 s           0.000 s
------------------------------------------------------------

------------------------------------------------------------
          Begin self-consistency iteration #    4

  Date     :  20150727, Time     :  123842.323
------------------------------------------------------------
  Evaluating new KS density.
  Integration grid: deviation in total charge (<rho> - N_e) =  -2.749800E-12
  Pulay mixing of updated and previous charge densities.

  Evaluating partitioned Hartree potential by multipole expansion.
  | Analytical far-field extrapolation by fixed multipoles:
  | Hartree multipole sum: apparent total charge =  -0.760843E-05
  Summing up the Hartree potential.
  Time summed over all CPUs for potential: real work        2.888 s, elapsed        2.903 s
  | RMS charge density error from multipole expansion :   0.169454E-01

  Integrating Hamiltonian matrix: batch-based integration.
  Time summed over all CPUs for integration: real work        7.245 s, elapsed        7.525 s

  Updating Kohn-Sham eigenvalues, eigenvectors, occupation numbers, and Fermi level.
  Solving generalized eigenproblem
  Updating Kohn-Sham eigenvalues and eigenfunctions.
  Solving real generalised eigenvalue problem by standard LAPACK (fast)
  Determining occupation numbers for Kohn-Sham eigenstates.
  | Chemical potential (Fermi level) in eV                 : -.19355767E+01
  | Error in electron count due to remaining E_F inaccuracy: 0.11937118E-11
  | Maximum occupation number of highest empty state:  0.00E+00

  Highest occupied state (VBM) at     -1.93557670 eV
  | Occupation number:      1.00000000

  Lowest unoccupied state (CBM) at    -1.23556163 eV
  | Occupation number:      0.00000000

  Overall HOMO-LUMO gap:      0.70001507 eV.

  Total energy components:
  | Sum of eigenvalues            :        -209.93221072 Ha       -5712.54610483 eV
  | XC energy correction          :         -46.83138667 Ha       -1274.34686946 eV
  | XC potential correction       :          59.86598510 Ha        1629.03633890 eV
  | Free-atom electrostatic energy:        -178.69982248 Ha       -4862.66957968 eV
  | Hartree energy correction     :          -7.67018645 Ha        -208.71639273 eV
  | van der Waals energy corr.    :           0.00000000 Ha           0.00000000 eV
  | Entropy correction            :          -0.00010367 Ha          -0.00282095 eV
  | ---------------------------
  | Total energy                  :        -383.26762123 Ha      -10429.24260779 eV
  | Total energy, T -> 0          :        -383.26772490 Ha      -10429.24542874 eV  <-- do not rely on this value for anything but (periodic) metals
  | Electronic free energy        :        -383.26782857 Ha      -10429.24824968 eV

  Derived energy quantities:
  | Kinetic energy                :         382.20427545 Ha       10400.30749691 eV
  | Electrostatic energy          :        -718.64051001 Ha      -19555.20323525 eV
  | Energy correction for multipole
  | error in Hartree potential    :          -0.00639636 Ha          -0.17405373 eV
  | Sum of eigenvalues per atom                           :        -357.03413155 eV
  | Total energy (T->0) per atom                          :        -651.82783930 eV  <-- do not rely on this value for anything but (periodic) metals
  | Electronic free energy per atom                       :        -651.82801561 eV

  Self-consistency convergence accuracy:
  | Change of charge density      : 0.1093E+00
  | Change of sum of eigenvalues  : 0.2996E+02 eV
  | Change of total energy        : 0.1600E+00 eV

  End self-consistency iteration #     4       :  max(cpu_time)    wall_clock(cpu1)
  | Time for this iteration                    :        2.013 s           2.013 s
  | Charge density update                      :        0.637 s           0.636 s
  | Density mixing                             :        0.008 s           0.009 s
  | Hartree multipole update                   :        0.005 s           0.005 s
  | Hartree multipole summation                :        0.364 s           0.364 s
  | Integration                                :        0.942 s           0.942 s
  | Solution of K.-S. eqns.                    :        0.057 s           0.057 s
  | Total energy evaluation                    :        0.000 s           0.000 s
------------------------------------------------------------

------------------------------------------------------------
          Begin self-consistency iteration #    5

  Date     :  20150727, Time     :  123844.336
------------------------------------------------------------
  Evaluating new KS density.
  Integration grid: deviation in total charge (<rho> - N_e) =   1.193712E-12
  Pulay mixing of updated and previous charge densities.

  Evaluating partitioned Hartree potential by multipole expansion.
  | Analytical far-field extrapolation by fixed multipoles:
  | Hartree multipole sum: apparent total charge =  -0.781289E-05
  Summing up the Hartree potential.
  Time summed over all CPUs for potential: real work        2.888 s, elapsed        2.903 s
  | RMS charge density error from multipole expansion :   0.175658E-01

  Integrating Hamiltonian matrix: batch-based integration.
  Time summed over all CPUs for integration: real work        7.248 s, elapsed        7.524 s

  Updating Kohn-Sham eigenvalues, eigenvectors, occupation numbers, and Fermi level.
  Solving generalized eigenproblem
  Updating Kohn-Sham eigenvalues and eigenfunctions.
  Solving real generalised eigenvalue problem by standard LAPACK (fast)
  Determining occupation numbers for Kohn-Sham eigenstates.
  | Chemical potential (Fermi level) in eV                 : -.19225386E+01
  | Error in electron count due to remaining E_F inaccuracy: 0.12301058E-08
  | Maximum occupation number of highest empty state:  0.00E+00

  Highest occupied state (VBM) at     -1.92253859 eV
  | Occupation number:      1.00000000

  Lowest unoccupied state (CBM) at    -1.23603342 eV
  | Occupation number:      0.00000000

  Overall HOMO-LUMO gap:      0.68650517 eV.

  Total energy components:
  | Sum of eigenvalues            :        -209.81705032 Ha       -5709.41243080 eV
  | XC energy correction          :         -46.84719503 Ha       -1274.77703658 eV
  | XC potential correction       :          59.88593283 Ha        1629.57914424 eV
  | Free-atom electrostatic energy:        -178.69982248 Ha       -4862.66957968 eV
  | Hartree energy correction     :          -7.78931964 Ha        -211.95817160 eV
  | van der Waals energy corr.    :           0.00000000 Ha           0.00000000 eV
  | Entropy correction            :          -0.00010367 Ha          -0.00282095 eV
  | ---------------------------
  | Total energy                  :        -383.26745463 Ha      -10429.23807440 eV
  | Total energy, T -> 0          :        -383.26755830 Ha      -10429.24089535 eV  <-- do not rely on this value for anything but (periodic) metals
  | Electronic free energy        :        -383.26766197 Ha      -10429.24371630 eV

  Derived energy quantities:
  | Kinetic energy                :         382.23501561 Ha       10401.14397906 eV
  | Electrostatic energy          :        -718.65527522 Ha      -19555.60501689 eV
  | Energy correction for multipole
  | error in Hartree potential    :          -0.00678637 Ha          -0.18466642 eV
  | Sum of eigenvalues per atom                           :        -356.83827692 eV
  | Total energy (T->0) per atom                          :        -651.82755596 eV  <-- do not rely on this value for anything but (periodic) metals
  | Electronic free energy per atom                       :        -651.82773227 eV

  Self-consistency convergence accuracy:
  | Change of charge density      : 0.2626E-01
  | Change of sum of eigenvalues  : 0.3134E+01 eV
  | Change of total energy        : 0.4533E-02 eV

  End self-consistency iteration #     5       :  max(cpu_time)    wall_clock(cpu1)
  | Time for this iteration                    :        2.015 s           2.015 s
  | Charge density update                      :        0.636 s           0.636 s
  | Density mixing                             :        0.011 s           0.010 s
  | Hartree multipole update                   :        0.005 s           0.005 s
  | Hartree multipole summation                :        0.363 s           0.364 s
  | Integration                                :        0.943 s           0.942 s
  | Solution of K.-S. eqns.                    :        0.057 s           0.057 s
  | Total energy evaluation                    :        0.000 s           0.001 s
------------------------------------------------------------

------------------------------------------------------------
          Begin self-consistency iteration #    6

  Date     :  20150727, Time     :  123846.351
------------------------------------------------------------
  Evaluating new KS density.
  Integration grid: deviation in total charge (<rho> - N_e) =   1.230106E-09
  Pulay mixing of updated and previous charge densities.

  Evaluating partitioned Hartree potential by multipole expansion.
  | Analytical far-field extrapolation by fixed multipoles:
  | Hartree multipole sum: apparent total charge =  -0.790933E-05
  Summing up the Hartree potential.
  Time summed over all CPUs for potential: real work        2.888 s, elapsed        2.903 s
  | RMS charge density error from multipole expansion :   0.177853E-01

  Integrating Hamiltonian matrix: batch-based integration.
  Time summed over all CPUs for integration: real work        7.247 s, elapsed        7.497 s

  Updating Kohn-Sham eigenvalues, eigenvectors, occupation numbers, and Fermi level.
  Solving generalized eigenproblem
  Updating Kohn-Sham eigenvalues and eigenfunctions.
  Solving real generalised eigenvalue problem by standard LAPACK (fast)
  Determining occupation numbers for Kohn-Sham eigenstates.
  | Chemical potential (Fermi level) in eV                 : -.19242735E+01
  | Error in electron count due to remaining E_F inaccuracy: -.21898927E-10
  | Maximum occupation number of highest empty state:  0.00E+00

  Highest occupied state (VBM) at     -5.78179459 eV
  | Occupation number:      2.00000000

  Lowest unoccupied state (CBM) at    -1.92427349 eV
  | Occupation number:      1.00000000

  Overall HOMO-LUMO gap:      3.85752110 eV.

  Total energy components:
  | Sum of eigenvalues            :        -209.83096478 Ha       -5709.79106261 eV
  | XC energy correction          :         -46.84687959 Ha       -1274.76845319 eV
  | XC potential correction       :          59.88520323 Ha        1629.55929105 eV
  | Free-atom electrostatic energy:        -178.69982248 Ha       -4862.66957968 eV
  | Hartree energy correction     :          -7.77500258 Ha        -211.56858479 eV
  | van der Waals energy corr.    :           0.00000000 Ha           0.00000000 eV
  | Entropy correction            :          -0.00010367 Ha          -0.00282095 eV
  | ---------------------------
  | Total energy                  :        -383.26746620 Ha      -10429.23838922 eV
  | Total energy, T -> 0          :        -383.26756987 Ha      -10429.24121017 eV  <-- do not rely on this value for anything but (periodic) metals
  | Electronic free energy        :        -383.26767354 Ha      -10429.24403112 eV

  Derived energy quantities:
  | Kinetic energy                :         382.21740773 Ha       10400.66484437 eV
  | Electrostatic energy          :        -718.63799434 Ha      -19555.13478041 eV
  | Energy correction for multipole
  | error in Hartree potential    :          -0.00695363 Ha          -0.18921797 eV
  | Sum of eigenvalues per atom                           :        -356.86194141 eV
  | Total energy (T->0) per atom                          :        -651.82757564 eV  <-- do not rely on this value for anything but (periodic) metals
  | Electronic free energy per atom                       :        -651.82775194 eV

  Self-consistency convergence accuracy:
  | Change of charge density      : 0.8741E-02
  | Change of sum of eigenvalues  : -.3786E+00 eV
  | Change of total energy        : -.3148E-03 eV

  End self-consistency iteration #     6       :  max(cpu_time)    wall_clock(cpu1)
  | Time for this iteration                    :        2.015 s           2.014 s
  | Charge density update                      :        0.637 s           0.636 s
  | Density mixing                             :        0.011 s           0.011 s
  | Hartree multipole update                   :        0.007 s           0.006 s
  | Hartree multipole summation                :        0.363 s           0.364 s
  | Integration                                :        0.939 s           0.938 s
  | Solution of K.-S. eqns.                    :        0.057 s           0.057 s
  | Total energy evaluation                    :        0.000 s           0.001 s
------------------------------------------------------------

------------------------------------------------------------
          Begin self-consistency iteration #    7

  Date     :  20150727, Time     :  123848.365
------------------------------------------------------------
  Evaluating new KS density.
  Integration grid: deviation in total charge (<rho> - N_e) =  -2.185629E-11
  Pulay mixing of updated and previous charge densities.

  Evaluating partitioned Hartree potential by multipole expansion.
  | Analytical far-field extrapolation by fixed multipoles:
  | Hartree multipole sum: apparent total charge =  -0.788129E-05
  Summing up the Hartree potential.
  Time summed over all CPUs for potential: real work        2.888 s, elapsed        2.903 s
  | RMS charge density error from multipole expansion :   0.177728E-01

  Integrating Hamiltonian matrix: batch-based integration.
  Time summed over all CPUs for integration: real work        7.245 s, elapsed        7.530 s

  Updating Kohn-Sham eigenvalues, eigenvectors, occupation numbers, and Fermi level.
  Solving generalized eigenproblem
  Updating Kohn-Sham eigenvalues and eigenfunctions.
  Solving real generalised eigenvalue problem by standard LAPACK (fast)
  Determining occupation numbers for Kohn-Sham eigenstates.
  | Chemical potential (Fermi level) in eV                 : -.19360390E+01
  | Error in electron count due to remaining E_F inaccuracy: 0.27851641E-08
  | Maximum occupation number of highest empty state:  0.00E+00

  Highest occupied state (VBM) at     -1.93603903 eV
  | Occupation number:      1.00000000

  Lowest unoccupied state (CBM) at    -1.25267062 eV
  | Occupation number:      0.00000000

  Overall HOMO-LUMO gap:      0.68336841 eV.

  Total energy components:
  | Sum of eigenvalues            :        -209.90628456 Ha       -5711.84061804 eV
  | XC energy correction          :         -46.83859729 Ha       -1274.54308035 eV
  | XC potential correction       :          59.87416174 Ha        1629.25883663 eV
  | Free-atom electrostatic energy:        -178.69982248 Ha       -4862.66957968 eV
  | Hartree energy correction     :          -7.69688024 Ha        -209.44276757 eV
  | van der Waals energy corr.    :           0.00000000 Ha           0.00000000 eV
  | Entropy correction            :          -0.00010367 Ha          -0.00282095 eV
  | ---------------------------
  | Total energy                  :        -383.26742283 Ha      -10429.23720901 eV
  | Total energy, T -> 0          :        -383.26752650 Ha      -10429.24002996 eV  <-- do not rely on this value for anything but (periodic) metals
  | Electronic free energy        :        -383.26763017 Ha      -10429.24285091 eV

  Derived energy quantities:
  | Kinetic energy                :         382.24672070 Ha       10401.46249086 eV
  | Electrostatic energy          :        -718.67554624 Ha      -19556.15661952 eV
  | Energy correction for multipole
  | error in Hartree potential    :          -0.00701301 Ha          -0.19083373 eV
  | Sum of eigenvalues per atom                           :        -356.99003863 eV
  | Total energy (T->0) per atom                          :        -651.82750187 eV  <-- do not rely on this value for anything but (periodic) metals
  | Electronic free energy per atom                       :        -651.82767818 eV

  Self-consistency convergence accuracy:
  | Change of charge density      : 0.7209E-02
  | Change of sum of eigenvalues  : -.2050E+01 eV
  | Change of total energy        : 0.1180E-02 eV

  End self-consistency iteration #     7       :  max(cpu_time)    wall_clock(cpu1)
  | Time for this iteration                    :        2.018 s           2.018 s
  | Charge density update                      :        0.636 s           0.636 s
  | Density mixing                             :        0.012 s           0.013 s
  | Hartree multipole update                   :        0.005 s           0.005 s
  | Hartree multipole summation                :        0.364 s           0.364 s
  | Integration                                :        0.943 s           0.943 s
  | Solution of K.-S. eqns.                    :        0.057 s           0.057 s
  | Total energy evaluation                    :        0.000 s           0.000 s
------------------------------------------------------------

------------------------------------------------------------
          Begin self-consistency iteration #    8

  Date     :  20150727, Time     :  123850.383
------------------------------------------------------------
  Evaluating new KS density.
  Integration grid: deviation in total charge (<rho> - N_e) =   2.785214E-09
  Pulay mixing of updated and previous charge densities.

  Evaluating partitioned Hartree potential by multipole expansion.
  | Analytical far-field extrapolation by fixed multipoles:
  | Hartree multipole sum: apparent total charge =  -0.785778E-05
  Summing up the Hartree potential.
  Time summed over all CPUs for potential: real work        2.888 s, elapsed        2.904 s
  | RMS charge density error from multipole expansion :   0.177987E-01

  Integrating Hamiltonian matrix: batch-based integration.
  Time summed over all CPUs for integration: real work        7.244 s, elapsed        7.530 s

  Updating Kohn-Sham eigenvalues, eigenvectors, occupation numbers, and Fermi level.
  Solving generalized eigenproblem
  Updating Kohn-Sham eigenvalues and eigenfunctions.
  Solving real generalised eigenvalue problem by standard LAPACK (fast)
  Determining occupation numbers for Kohn-Sham eigenstates.
  | Chemical potential (Fermi level) in eV                 : -.19405968E+01
  | Error in electron count due to remaining E_F inaccuracy: 0.00000000E+00
  | Maximum occupation number of highest empty state:  0.00E+00

  Highest occupied state (VBM) at     -1.94059683 eV
  | Occupation number:      1.00000000

  Lowest unoccupied state (CBM) at    -1.94059683 eV
  | Occupation number:      1.00000000

  Overall HOMO-LUMO gap:      0.00000000 eV.

  Total energy components:
  | Sum of eigenvalues            :        -209.92644746 Ha       -5712.38927853 eV
  | XC energy correction          :         -46.83712754 Ha       -1274.50308624 eV
  | XC potential correction       :          59.87216395 Ha        1629.20447403 eV
  | Free-atom electrostatic energy:        -178.69982248 Ha       -4862.66957968 eV
  | Hartree energy correction     :          -7.67618667 Ha        -208.87966697 eV
  | van der Waals energy corr.    :           0.00000000 Ha           0.00000000 eV
  | Entropy correction            :          -0.00010367 Ha          -0.00282095 eV
  | ---------------------------
  | Total energy                  :        -383.26742020 Ha      -10429.23713738 eV
  | Total energy, T -> 0          :        -383.26752387 Ha      -10429.23995833 eV  <-- do not rely on this value for anything but (periodic) metals
  | Electronic free energy        :        -383.26762754 Ha      -10429.24277928 eV

  Derived energy quantities:
  | Kinetic energy                :         382.25512858 Ha       10401.69128079 eV
  | Electrostatic energy          :        -718.68542124 Ha      -19556.42533194 eV
  | Energy correction for multipole
  | error in Hartree potential    :          -0.00705829 Ha          -0.19206582 eV
  | Sum of eigenvalues per atom                           :        -357.02432991 eV
  | Total energy (T->0) per atom                          :        -651.82749740 eV  <-- do not rely on this value for anything but (periodic) metals
  | Electronic free energy per atom                       :        -651.82767370 eV

  Self-consistency convergence accuracy:
  | Change of charge density      : 0.2153E-02
  | Change of sum of eigenvalues  : -.5487E+00 eV
  | Change of total energy        : 0.7163E-04 eV

  End self-consistency iteration #     8       :  max(cpu_time)    wall_clock(cpu1)
  | Time for this iteration                    :        2.020 s           2.020 s
  | Charge density update                      :        0.636 s           0.637 s
  | Density mixing                             :        0.014 s           0.014 s
  | Hartree multipole update                   :        0.005 s           0.005 s
  | Hartree multipole summation                :        0.364 s           0.364 s
  | Integration                                :        0.943 s           0.943 s
  | Solution of K.-S. eqns.                    :        0.057 s           0.057 s
  | Total energy evaluation                    :        0.001 s           0.000 s
------------------------------------------------------------

------------------------------------------------------------
          Begin self-consistency iteration #    9

  Date     :  20150727, Time     :  123852.403
------------------------------------------------------------
  Evaluating new KS density.
  Integration grid: deviation in total charge (<rho> - N_e) =   1.421085E-14
  Pulay mixing of updated and previous charge densities.

  Evaluating partitioned Hartree potential by multipole expansion.
  | Analytical far-field extrapolation by fixed multipoles:
  | Hartree multipole sum: apparent total charge =  -0.784769E-05
  Summing up the Hartree potential.
  Time summed over all CPUs for potential: real work        2.888 s, elapsed        2.904 s
  | RMS charge density error from multipole expansion :   0.177940E-01

  Integrating Hamiltonian matrix: batch-based integration.
  Time summed over all CPUs for integration: real work        7.242 s, elapsed        7.530 s

  Updating Kohn-Sham eigenvalues, eigenvectors, occupation numbers, and Fermi level.
  Solving generalized eigenproblem
  Updating Kohn-Sham eigenvalues and eigenfunctions.
  Solving real generalised eigenvalue problem by standard LAPACK (fast)
  Determining occupation numbers for Kohn-Sham eigenstates.
  | Chemical potential (Fermi level) in eV                 : -.19415296E+01
  | Error in electron count due to remaining E_F inaccuracy: 0.00000000E+00
  | Maximum occupation number of highest empty state:  0.00E+00

  Highest occupied state (VBM) at     -1.94152962 eV
  | Occupation number:      1.00000000

  Lowest unoccupied state (CBM) at    -1.94152962 eV
  | Occupation number:      1.00000000

  Overall HOMO-LUMO gap:      0.00000000 eV.

  Total energy components:
  | Sum of eigenvalues            :        -209.92543420 Ha       -5712.36170635 eV
  | XC energy correction          :         -46.83742443 Ha       -1274.51116526 eV
  | XC potential correction       :          59.87255609 Ha        1629.21514463 eV
  | Free-atom electrostatic energy:        -178.69982248 Ha       -4862.66957968 eV
  | Hartree energy correction     :          -7.67729423 Ha        -208.90980514 eV
[...]
   Van der Waals               : 0.119799E-02 0.130586E-02 0.236443E-02
   ----------------------------------------------------------------
   Total forces(   7)            : -.336998E+00 0.454799E+00 -.290356E+01
  atom #    8
   Hellmann-Feynman + Multipole  : -.459553E+01 0.196314E+01 -.979811E+01
   Pulay + GGA                   : 0.602411E+01 -.194371E+01 0.108378E+02
   Van der Waals               : 0.810179E-03 0.494619E-02 0.122690E-03
   ----------------------------------------------------------------
   Total forces(   8)            : 0.142939E+01 0.243725E-01 0.103977E+01
  atom #    9
   Hellmann-Feynman + Multipole  : -.186053E+00 -.520783E+00 -.800118E+00
   Pulay + GGA                   : 0.253718E-01 0.959354E-01 0.846174E-01
   Van der Waals               : 0.697938E-03 0.522496E-02 0.294208E-02
   ----------------------------------------------------------------
   Total forces(   9)            : -.159984E+00 -.419623E+00 -.712558E+00
  atom #   10
   Hellmann-Feynman + Multipole  : -.125329E+01 0.659138E+00 -.272770E+00
   Pulay + GGA                   : 0.121240E+00 -.768110E-01 0.944700E-02
   Van der Waals               : -.111081E-02 0.122627E-02 0.653650E-03
   ----------------------------------------------------------------
   Total forces(  10)            : -.113316E+01 0.583554E+00 -.262669E+00
  atom #   11
   Hellmann-Feynman + Multipole  : 0.611937E+01 -.683470E+01 -.100245E+02
   Pulay + GGA                   : -.658180E+01 0.742415E+01 0.119555E+02
   Van der Waals               : 0.411036E-02 -.634961E-02 -.868992E-02
   ----------------------------------------------------------------
   Total forces(  11)            : -.458320E+00 0.583094E+00 0.192237E+01
  atom #   12
   Hellmann-Feynman + Multipole  : -.356033E+00 0.213676E+00 -.230540E+01
   Pulay + GGA                   : 0.152763E-01 0.403449E-02 0.132820E+00
   Van der Waals               : 0.341648E-05 0.124215E-03 -.261414E-02
   ----------------------------------------------------------------
   Total forces(  12)            : -.340754E+00 0.217834E+00 -.217520E+01
  atom #   13
   Hellmann-Feynman + Multipole  : 0.130258E+01 -.136615E+01 0.396692E+00
   Pulay + GGA                   : -.530907E-01 0.678566E-01 0.214068E-02
   Van der Waals               : 0.128951E-02 -.294253E-02 -.585193E-02
   ----------------------------------------------------------------
   Total forces(  13)            : 0.125078E+01 -.130124E+01 0.392980E+00
  atom #   14
   Hellmann-Feynman + Multipole  : -.132836E+01 -.130098E+02 -.403067E+00
   Pulay + GGA                   : 0.205640E+01 0.132987E+02 -.135914E+01
   Van der Waals               : -.732439E-03 -.133073E-02 -.628939E-02
   ----------------------------------------------------------------
   Total forces(  14)            : 0.727314E+00 0.287646E+00 -.176849E+01
  atom #   15
   Hellmann-Feynman + Multipole  : -.336139E+00 0.647544E+00 0.371502E+00
   Pulay + GGA                   : -.861067E-01 0.912226E-01 0.771900E-01
   Van der Waals               : 0.687771E-03 -.100288E-02 -.112577E-02
   ----------------------------------------------------------------
   Total forces(  15)            : -.421558E+00 0.737764E+00 0.447566E+00
  atom #   16
   Hellmann-Feynman + Multipole  : -.771564E+00 -.694756E+00 0.119324E+01
   Pulay + GGA                   : 0.650124E-01 0.800551E-01 -.131637E+00
   Van der Waals               : 0.373933E-03 -.219709E-02 -.264983E-02
   ----------------------------------------------------------------
   Total forces(  16)            : -.706178E+00 -.616898E+00 0.105895E+01
  Timings for vdw_correction_hirshfeld (Tkatchenko-Scheffler 2009):
  | CPU time:        5.406 s, Wall clock time:        5.409 s.
  Removing unitary transformations (pure translations, rotations) from forces on atoms.
  Atomic forces before filtering:
  | Net force on center of mass :  0.739842E-02 0.320487E-02 0.491218E-02 eV/A
  | Net torque on center of mass:  -.183575E-01 0.854344E-02 0.288126E-03 eV
  Atomic forces after filtering:
  | Net force on center of mass :  0.000000E+00 0.892031E-16 0.356812E-15 eV/A
  | Net torque on center of mass:  -.188817E-15 -.151054E-14 0.000000E+00 eV
 
  Energy and forces in a compact form:
  | Total energy uncorrected      :         -0.104293109752755E+05 eV
  | Total energy corrected        :         -0.104293137962234E+05 eV  <-- do not rely on this value for anything but (periodic) metals
  | Electronic free energy        :         -0.104293166171713E+05 eV
  Total atomic forces (unitary forces cleaned) [eV/Ang]:
  |   1         -0.147450663626686E+01          0.517585991122533E+00          0.343842606163131E+00
  |   2          0.941870818298334E-01         -0.496340068855926E+00          0.177972149823301E+00
  |   3          0.803075262524650E+00         -0.133680445998989E-02          0.606067741974401E-01
  |   4          0.238654099364028E+00          0.989261790128807E-01         -0.639492406270754E+00
  |   5          0.427596843175373E+00         -0.866153968582647E+00          0.300403003878174E+01
  |   6          0.660069558870176E-01          0.200186081393908E+00          0.153365881669566E-01
  |   7         -0.336934221719433E+00          0.455458045802075E+00         -0.290399736114101E+01
  |   8          0.142904688295723E+01          0.242854837948027E-01          0.103960145257573E+01
  |   9         -0.160412418116953E+00         -0.419917496016197E+00         -0.712551300291284E+00
  |  10         -0.113356895836824E+01          0.583369753017869E+00         -0.262850758985161E+00
  |  11         -0.459202031654946E+00          0.582225724393535E+00          0.192212966499800E+01
  |  12         -0.341812991038204E+00          0.216693810379347E+00         -0.217543235168931E+01
  |  13          0.124998321381411E+01         -0.130201445085503E+01          0.392803819523007E+00
  |  14          0.726702950315054E+00          0.287127617121233E+00         -0.176860147230046E+01
  |  15         -0.422195336027382E+00          0.737159122694505E+00          0.447557382234030E+00
  |  16         -0.706620696675273E+00         -0.617255019962894E+00          0.105904517421466E+01
 
  ------------------------------------ 
  Start decomposition of the XC Energy 
  ------------------------------------ 
  Hartree-Fock part   :          0.000000000 Ha              0.000000000 eV
  ------------------------------------ 
  X Energy            :        -45.179958276 Ha          -1229.409216346 eV
  C Energy GGA        :         -1.657423358 Ha            -45.100784284 eV
  Total XC Energy     :        -46.837381635 Ha          -1274.510000630 eV
  LDA X and C from self-consistent density 
  X Energy LDA        :        -40.722668060 Ha          -1108.120178453 eV
  C Energy LDA        :         -3.336753990 Ha            -90.797695814 eV
  ------------------------------------ 
  End decomposition of the XC Energy 
  ------------------------------------ 
  Performing Hirshfeld analysis of fragment charges and moments.
  ----------------------------------------------------------------------
  | Atom     1: O
  |   Hirshfeld charge        :     -0.12753762
  |   Free atom volume        :     23.95238533
  |   Hirshfeld volume        :     21.34567318
  |   Hirshfeld dipole vector :      0.00603305       0.03032203       0.01982659
  |   Hirshfeld dipole moment :      0.03672760
  |   Hirshfeld second moments:      0.08109029      -0.00770879      -0.01222742
  |                                 -0.00770879       0.04395979      -0.02454565
  |                                 -0.01222742      -0.02454565       0.07986684
  ----------------------------------------------------------------------
  | Atom     2: H
  |   Hirshfeld charge        :      0.11399199
  |   Free atom volume        :     10.44207651
  |   Hirshfeld volume        :      9.48215508
  |   Hirshfeld dipole vector :     -0.00410502       0.00861416      -0.00212849
  |   Hirshfeld dipole moment :      0.00977678
  |   Hirshfeld second moments:      0.04791375       0.01567720      -0.00275763
  |                                  0.01567720       0.02626361       0.01178566
  |                                 -0.00275763       0.01178566       0.06616106
  ----------------------------------------------------------------------
  | Atom     3: H
  |   Hirshfeld charge        :      0.10276497
  |   Free atom volume        :     10.44207651
  |   Hirshfeld volume        :      9.54643026
  |   Hirshfeld dipole vector :      0.01409495       0.00388560       0.00368373
  |   Hirshfeld dipole moment :      0.01507764
  |   Hirshfeld second moments:      0.02360585      -0.01769962      -0.00284778
  |                                 -0.01769962       0.05194476       0.00559416
  |                                 -0.00284778       0.00559416       0.06015355
  ----------------------------------------------------------------------
  | Atom     4: H
  |   Hirshfeld charge        :      0.15587134
  |   Free atom volume        :     10.44207651
  |   Hirshfeld volume        :      9.64822966
  |   Hirshfeld dipole vector :     -0.02514089      -0.00348494       0.05981674
  |   Hirshfeld dipole moment :      0.06497885
  |   Hirshfeld second moments:      0.06841692       0.00114777       0.00179758
  |                                  0.00114777       0.06282758      -0.00020212
  |                                  0.00179758      -0.00020212       0.03941401
  ----------------------------------------------------------------------
  | Atom     5: O
  |   Hirshfeld charge        :     -0.21476276
  |   Free atom volume        :     23.95238533
  |   Hirshfeld volume        :     22.79433513
  |   Hirshfeld dipole vector :      0.03120075      -0.00877712      -0.01968073
  |   Hirshfeld dipole moment :      0.03791907
  |   Hirshfeld second moments:     -0.01784711       0.00111209       0.03767745
  |                                  0.00111209       0.04292395       0.00475558
  |                                  0.03767745       0.00475558       0.05615084
  ----------------------------------------------------------------------
  | Atom     6: H
  |   Hirshfeld charge        :      0.07032160
  |   Free atom volume        :     10.44207651
  |   Hirshfeld volume        :     12.78991762
  |   Hirshfeld dipole vector :      0.00586583      -0.00117890       0.02665272
  |   Hirshfeld dipole moment :      0.02731602
  |   Hirshfeld second moments:     -0.04364971      -0.02713844       0.01032112
  |                                 -0.02713844      -0.03606749       0.00263042
  |                                  0.01032112       0.00263042       0.03415120
  ----------------------------------------------------------------------
  | Atom     7: H
  |   Hirshfeld charge        :      0.10888402
  |   Free atom volume        :     10.44207651
  |   Hirshfeld volume        :     11.65481844
  |   Hirshfeld dipole vector :     -0.01429786      -0.00790936      -0.06836081
  |   Hirshfeld dipole moment :      0.07028646
  |   Hirshfeld second moments:      0.00752675      -0.00141646       0.01875297
  |                                 -0.00141646       0.02947873       0.00690868
  |                                  0.01875297       0.00690868       0.02398329
  ----------------------------------------------------------------------
  | Atom     8: O
  |   Hirshfeld charge        :     -0.22434020
  |   Free atom volume        :     23.95238533
  |   Hirshfeld volume        :     22.96712012
  |   Hirshfeld dipole vector :     -0.00955689      -0.02839718       0.03738771
  |   Hirshfeld dipole moment :      0.04791216
  |   Hirshfeld second moments:      0.04637436      -0.01420705       0.00661574
  |                                 -0.01420705       0.01704470       0.04857028
  |                                  0.00661574       0.04857028      -0.01381061
  ----------------------------------------------------------------------
  | Atom     9: H
  |   Hirshfeld charge        :      0.10394669
  |   Free atom volume        :     10.44207651
  |   Hirshfeld volume        :     11.30012413
  |   Hirshfeld dipole vector :      0.00352909       0.02524192       0.05435223
  |   Hirshfeld dipole moment :      0.06003144
  |   Hirshfeld second moments:      0.04839784       0.00280459      -0.00057841
  |                                  0.00280459       0.00466006       0.01219782
  |                                 -0.00057841       0.01219782       0.00479182
  ----------------------------------------------------------------------
  | Atom    10: H
  |   Hirshfeld charge        :      0.11064985
  |   Free atom volume        :     10.44207651
  |   Hirshfeld volume        :     11.03981642
  |   Hirshfeld dipole vector :      0.05075615      -0.04237228       0.00178101
  |   Hirshfeld dipole moment :      0.06614204
  |   Hirshfeld second moments:      0.03239632       0.00201294      -0.00223802
  |                                  0.00201294       0.02933793       0.02679000
  |                                 -0.00223802       0.02679000       0.02268008
  ----------------------------------------------------------------------
  | Atom    11: O
  |   Hirshfeld charge        :     -0.36873584
  |   Free atom volume        :     23.95238533
  |   Hirshfeld volume        :     24.53376258
  |   Hirshfeld dipole vector :     -0.04394106       0.04250305       0.05342728
  |   Hirshfeld dipole moment :      0.08118990
  |   Hirshfeld second moments:     -0.07599822      -0.04315941       0.03257282
  |                                 -0.04315941      -0.07905103      -0.02001708
  |                                  0.03257282      -0.02001708      -0.00390678
  ----------------------------------------------------------------------
  | Atom    12: H
  |   Hirshfeld charge        :      0.10565556
  |   Free atom volume        :     10.44207651
  |   Hirshfeld volume        :      8.37592307
  |   Hirshfeld dipole vector :      0.01144865      -0.00584374       0.11786373
  |   Hirshfeld dipole moment :      0.11856256
  |   Hirshfeld second moments:      0.07101078      -0.01773375       0.01017369
  |                                 -0.01773375       0.06684155      -0.00813314
  |                                  0.01017369      -0.00813314       0.07357777
  ----------------------------------------------------------------------
  | Atom    13: H
  |   Hirshfeld charge        :      0.05944152
  |   Free atom volume        :     10.44207651
  |   Hirshfeld volume        :      9.54061264
  |   Hirshfeld dipole vector :     -0.03631384       0.03343199       0.01164114
  |   Hirshfeld dipole moment :      0.05071399
  |   Hirshfeld second moments:      0.01425162       0.00748098      -0.00851524
  |                                  0.00748098       0.01887694       0.00805600
  |                                 -0.00851524       0.00805600       0.06886014
  ----------------------------------------------------------------------
  | Atom    14: O
  |   Hirshfeld charge        :     -0.22479388
  |   Free atom volume        :     23.95238533
  |   Hirshfeld volume        :     22.10383467
  |   Hirshfeld dipole vector :      0.02767890       0.01852767       0.02813143
  |   Hirshfeld dipole moment :      0.04359786
  |   Hirshfeld second moments:      0.01929526      -0.03057334      -0.04245273
  |                                 -0.03057334       0.03174492      -0.00828170
  |                                 -0.04245273      -0.00828170       0.04756824
  ----------------------------------------------------------------------
  | Atom    15: H
  |   Hirshfeld charge        :      0.13514801
  |   Free atom volume        :     10.44207651
  |   Hirshfeld volume        :      8.25226902
  |   Hirshfeld dipole vector :     -0.05154603       0.06539136       0.06743300
  |   Hirshfeld dipole moment :      0.10714585
  |   Hirshfeld second moments:      0.08265467      -0.00764354      -0.01607636
  |                                 -0.00764354       0.07816879      -0.00773647
  |                                 -0.01607636      -0.00773647       0.08532010
  ----------------------------------------------------------------------
  | Atom    16: H
  |   Hirshfeld charge        :      0.09346066
  |   Free atom volume        :     10.44207651
  |   Hirshfeld volume        :     11.21057011
  |   Hirshfeld dipole vector :      0.02656044       0.01760235      -0.02146090
  |   Hirshfeld dipole moment :      0.03841705
  |   Hirshfeld second moments:      0.00472625      -0.02236720       0.00202678
  |                                 -0.02236720       0.03377518       0.02926491
  |                                  0.00202678       0.02926491       0.01550975
  ----------------------------------------------------------------------


------------------------------------------------------------------------------
  Final output of selected total energy values:

  The following output summarizes some interesting total energy values
  at the end of a run (AFTER all relaxation, molecular dynamics, etc.).

  | Total energy of the DFT / Hartree-Fock s.c.f. calculation      :         -10429.310975275 eV
  | Final zero-broadening corrected energy (caution - metals only) :         -10429.313796223 eV
  | For reference only, the value of 1 Hartree used in FHI-aims is :             27.211384500 eV

  Before relying on these values, please be sure to understand exactly which
  total energy value is referred to by a given number. Different objects may
  all carry the same name 'total energy'. Definitions:

  Total energy of the DFT / Hartree-Fock s.c.f. calculation:
  | Note that this energy does not include ANY quantities calculated after the
  | s.c.f. cycle, in particular not ANY RPA, MP2, etc. many-body perturbation terms.

  Final zero-broadening corrected energy:
  | For metallic systems only, a broadening of the occupation numbers at the Fermi
  | level can be extrapolated back to zero broadening by an electron-gas inspired
  | formula. For all systems that are not real metals, this value can be
  | meaningless and should be avoided.

------------------------------------------------------------------------------

------------------------------------------------------------
          Leaving FHI-aims.
          Date     :  20150727, Time     :  123916.152

          Computational steps:
          | Number of self-consistency cycles          :           16

          Detailed time accounting                     :  max(cpu_time)    wall_clock(cpu1)
          | Total time                                 :       42.683 s          42.701 s
          | Preparation time                           :        0.174 s           0.720 s
          | Grid partitioning                          :        0.166 s           0.165 s
          | Preloading free-atom quantities on grid    :        0.014 s           0.013 s
          | Free-atom superposition energy             :        0.072 s           0.072 s
          | Total time for integrations                :       16.548 s          16.547 s
          | Total time for solution of K.-S. equations :        1.123 s           1.128 s
          | Total time for density & force components  :       15.744 s          15.744 s
          | Total time for mixing                      :        0.214 s           0.216 s
          | Total time for Hartree multipole update    :        0.079 s           0.081 s
          | Total time for Hartree multipole sum       :        7.640 s           7.644 s
          | Total time for total energy evaluation     :        0.009 s           0.018 s
          | Total time for scaled ZORA corrections     :        0.000 s           0.000 s
          | Total time for TS (2009) vdW correction    :        0.063 s           0.066 s

          Have a nice day.
------------------------------------------------------------
