  MPI-parallelism will be employed.
------------------------------------------------------------
          Invoking FHI-aims ...
          Version 081213
          Compiled on 2013/08/29 at 17:41:06 on host generoso.

          When using FHI-aims, please cite the following reference:

          Volker Blum, Ralf Gehrke, Felix Hanke, Paula Havu,
          Ville Havu, Xinguo Ren, Karsten Reuter, and Matthias Scheffler,
          'Ab Initio Molecular Simulations with Numeric Atom-Centered Orbitals: FHI-aims',
          Computer Physics Communications 180, 2175-2196 (2009)

          For any questions about FHI-aims, please visit the aimsclub website
          with its forums and wiki. Contributions to both the forums and the
          wiki are warmly encouraged - they are for you, and everyone is welcome there.

------------------------------------------------------------

  Date     :  20150727, Time     :  122652.799
  Time zero on CPU 1             :   0.459920000000000E-01  s.
  Internal wall clock time zero  :           207232012.799  s.

  Using        8 parallel tasks.
  Task        0 on host gen59 reporting.
  Task        1 on host gen59 reporting.
  Task        2 on host gen59 reporting.
  Task        3 on host gen59 reporting.
  Task        4 on host gen59 reporting.
  Task        5 on host gen59 reporting.
  Task        6 on host gen59 reporting.
  Task        7 on host gen59 reporting.

  Performing system and environment tests:
  | Environment variable OMP_NUM_THREADS correctly set to 1.
  | Checking for scalapack...
  | No scalapack compiled in.

  Obtaining array dimensions for all initial allocations:
  
  -----------------------------------------------------------------------
  Parsing control.in (first pass over file, find array dimensions only).
  The contents of control.in will be repeated verbatim below
  unless switched off by setting 'verbatim_writeout .false.' .
  in the first line of control.in .
  -----------------------------------------------------------------------
  
  #########################################################################################
  #
  #  Volker Blum, FHI 2008 : Test run input file control.in
  #
  #########################################################################################
  #
  #  Physical model
  #
    xc                 rpbe
    spin               none
    relativistic       atomic_zora scalar
    charge             0.
   vdw_correction_hirshfeld
  #
  #  SCF convergence
  #
    occupation_type    gaussian 0.01
    mixer              pulay
      n_max_pulay        10
      charge_mix_param   0.1
    sc_accuracy_rho    5E-5
    sc_accuracy_eev    5E-3
    sc_accuracy_etot   5E-6
    sc_iter_limit      3000
  #
  #  Eigenvalue solver
  #
    KS_method          lapack
      empty_states       8
      basis_threshold    0.e-5
  #
  #  Efficiency
  #
  #   all previous settings are now default, except stratmann still
  #   undecided. Continue to handle stratmann with care, if at all.
  #
  #  partition_type stratmann
    partition_type rho_r2
  #  hartree_partition_type stratmann
  #
  #  Oprions for large clusters (100's of atoms: memory saving / better scaling)
  #
  # for periodic systems:
  #
    density_update_method orbital
    packed_matrix_format none
  #  k_grid 6 6 6
  #  output k_eigenvalue 1
  #  distributed_spline_storage .true.
  #
  #  Relaxation
  #
  #  relax_geometry   bfgs 5.e-3
    sc_accuracy_forces 5.E-4
    final_forces_cleaned .true.
  #
  #  Output options
  #
  #  output mulliken
    output Hirshfeld
  #  output dipole
  
  #harmonic_length_scale 0.001
  
  ################################################################################
  #
  #  FHI-aims code project
  #  VB, Fritz-Haber Institut, 2007
  #
  #  Suggested "safe" defaults for H atom (to be pasted into control.in file)
  #  Basis constructed for a non-relativistic H2 molecule using the
  #  PW-LDA functional.
  #
  ################################################################################
    species        H
  #     global species definitions
      nucleus             1
      cut_pot             4.0  2.0  1.0
      cut_free_atom       finite 8.0
      logarithmic         0.00010000 100.00  1.0123
      basis_dep_cutoff    1d-4  # 1d-4 is safe default - please check 5d-4 if you wish!
      radial_base         24 7.0
      radial_multiplier   2
      angular_grids       specified
        division   0.2783  110
        division   0.3822  194
        division   0.5626  302
  #      division   0.5922  434
  #      division   0.6227  590
  #      division   0.7206  770
        outer_grid  302
      l_hartree           4
  ################################################################################
  #
  #  Definition of "minimal" basis
  #
  ################################################################################
  #     valence basis states
      valence      1  s   1.
  #     ion occupancy
      ion_occ      1  s   0.5
  ################################################################################
  #
  #  Suggested additional basis functions. For production calculations,
  #  uncomment them one after another (the most important basis functions are
  #  listed first).
  #
  ################################################################################
  #  "First tier" - improvements: -1014.90 meV to -62.69 meV
       hydro 2 s 2.1
       hydro 2 p 3.5
  #  "Second tier" - improvements: -12.89 meV to -1.83 meV
       hydro 1 s 0.85
       hydro 2 p 3.7
       hydro 2 s 1.2
       hydro 3 d 7
  #  "Third tier" - improvements: -0.25 meV to -0.12 meV
  #     hydro 4 f 11.2
  #     hydro 3 p 4.8
  #     hydro 4 d 9
  #     hydro 3 s 3.2
  
  ################################################################################
  #
  #  FHI-aims code project
  #  VB, Fritz-Haber Institut, 2007
  #
  #  Suggested "safe" defaults for O atom (to be pasted into control.in file)
  #  All values have been tested for a non-relativistic, non-spinpolarized O2
  #  molecule using the PW-LDA functional. Validity for PBE is expected.
  #
  #  Constructed for dimers: 1.0 A, 1.208 A, 1.5 A, 2.0 A, 3.0 A
  #
  ################################################################################
    species        O
  #     global species definitions
      nucleus             8
      mass                15.9994
      l_hartree           4
      cut_pot             4.0  2.0  1.0
      cut_free_atom       finite 8.0
      basis_dep_cutoff    1d-4  # 1d-4 is safe default - please check 5d-4 if you wish!
      logarithmic         0.00010000 100.00  1.0123
      radial_base         36 7.0
      radial_multiplier   2
       angular_grids specified
        division   0.4087  110
        division   0.5181  194
        division   0.6184  302
  #      division   0.7315  434
  #      division   0.7934  590
  #      division   0.9656  770
  #      division   1.4041  974
  #      outer_grid 974
        outer_grid 302
  ################################################################################
  #
  #  Definition of "minimal" basis
  #
  ################################################################################
  #     valence basis states
      valence      2  s   2.
      valence      2  p   4.
  #     ion occupancy
      ion_occ      2  s   1.
      ion_occ      2  p   3.
  ################################################################################
  #
  #  Suggested additional basis functions. For production calculations,
  #  uncomment them one after another (the most important basis functions are
  #  listed first).
  #
  ################################################################################
  #  "First tier" - improvements: -699.05 meV to -159.38 meV
       hydro 2 p 1.8
       hydro 3 d 7.6
       hydro 3 s 6.4
  #  "Second tier" - improvements: -49.91 meV to -5.39 meV
       hydro 4 f 11.6
       hydro 3 p 6.2
       hydro 3 d 5.6
       hydro 5 g 17.6
       hydro 1 s 0.75
  #  "Third tier" - improvements: -2.83 meV to -0.50 meV
  #     ionic 2 p auto
  #     hydro 4 f 10.8
  #     hydro 4 d 4.7
  #     hydro 2 s 6.8
  #  "Fourth tier" - improvements: -0.40 meV to -0.12 meV
  #     hydro 3 p 5
  #     hydro 3 s 3.3
  #     hydro 5 g 15.6
  #     hydro 4 f 17.6
  #     hydro 4 d 14
  # Further basis functions - -0.08 meV and below
  #     hydro 3 s 2.1
  #     hydro 4 d 11.6
  #     hydro 3 p 16
  #     hydro 2 s 17.2
  
  
  -----------------------------------------------------------------------
  Completed first pass over input file control.in .
  -----------------------------------------------------------------------
  
  
  -----------------------------------------------------------------------
  Parsing geometry.in (first pass over file, find array dimensions only).
  The contents of geometry.in will be repeated verbatim below
  unless switched off by setting 'verbatim_writeout .false.' .
  in the first line of geometry.in .
  -----------------------------------------------------------------------
  
  atom      -4.053030000      0.065001000     -1.525160000  O
  atom      -4.566710000      0.974813000     -1.912820000  H
  atom      -3.067820000      0.330172000     -1.477310000  H
  atom      -4.370360000     -0.049164000     -0.572274000  H
  atom      -4.581760000     -0.256435000      0.939478000  O
  atom      -4.349860000      0.471090000      1.504340000  H
  atom      -5.393870000     -0.726611000      1.228070000  H
  atom      -3.818880000      2.024990000      2.187990000  O
  atom      -3.690880000      1.961360000      3.202150000  H
  atom      -4.546490000      2.751300000      2.045370000  H
  atom      -1.975360000      2.858040000      0.453140000  O
  atom      -1.223550000      3.375850000      0.786238000  H
  atom      -2.537520000      2.567960000      1.156120000  H
  
  -----------------------------------------------------------------------
  Completed first pass over input file geometry.in .
  -----------------------------------------------------------------------
  
 
  Basic array size parameters: 
  | Number of species                 :        2
  | Number of atoms                   :       13
  | Max. basis fn. angular momentum   :        4
  | Max. atomic/ionic basis occupied n:        2
  | Max. number of basis fn. types    :        2
  | Max. radial fns per species/type  :        8
  | Max. logarithmic grid size        :     1301
  | Max. radial integration grid size :       73
  | Max. angular integration grid size:      302
  | Max. angular grid division number :        8
  | Radial grid for Hartree potential :     1301
  | Number of spin channels           :        1

------------------------------------------------------------
          Reading file control.in.
------------------------------------------------------------
  XC: Using RPBE gradient-corrected functionals.
  Spin treatment: No spin polarisation.
  Scalar relativistic treatment of kinetic energy: on-site free-atom approximation to ZORA.
  Charge =   0.000000E+00: Neutral system requested explicitly.
  Using non-empirical van der Waals correction (Hirshfeld partitioning):
  Occupation type: Gaussian broadening, width =   0.100000E-01 eV.
  Using pulay charge density mixing.
  Pulay mixing - number of memorized iterations:   10
  Charge density mixing - mixing parameter:     0.1000
  Convergence accuracy of self-consistent charge density: 0.5000E-04
  Convergence accuracy of sum of eigenvalues: 0.5000E-02
  Convergence accuracy of total energy: 0.5000E-05
  Maximum number of s.-c. iterations  :  3000
  Kohn-Sham eigenvalues and eigenfunctions calculated by lapack diagonalisation (D&C).
  Number of empty states per atom:        8
  Threshold for basis singularities: 0.0000E+00
  Partition function in integrals calculations: rho / r^2
 Using packed matrix format           0
  Convergence accuracy of forces: 0.5000E-03
  Cleaning forces before final output.
  Hirshfeld charge analysis will be performed.
 
  Reading configuration options for species H                   .
  | Found nuclear charge :   1.0000
  | Found cutoff potl. onset [A], width [A], scale factor :    4.00000    2.00000    1.00000
  | Found cutoff specification for free atom: Cutoff potential begins at    8.00000 A.
  | Found logarithmic grid data [bohr] : 0.1000E-03 0.1000E+03 0.1012E+01
  | Threshold for basis-dependent cutoff potential is   0.100000E-03
  | Found data for basic radial integration grid :    24 points, outermost radius =    7.000 A
  | Found multiplier for basic radial grid :   2
  | Found angular grid specification: user-specified.
  | Specified grid contains     4 separate shells.
  | Check grid settings after all constraints further below.
  | Found l_max for Hartree potential  :   4
  | Found free-atom valence shell :  1 s   1.000
  | No ionic wave fns used. Skipping ion_occ.
  | Found hydrogenic basis function :  2 s   2.100
  | Found hydrogenic basis function :  2 p   3.500
  | Found hydrogenic basis function :  1 s   0.850
  | Found hydrogenic basis function :  2 p   3.700
  | Found hydrogenic basis function :  2 s   1.200
  | Found hydrogenic basis function :  3 d   7.000
  Species H                   : Missing cutoff potential type.
  Defaulting to exp(1/x)/(1-x)^2 type cutoff potential.
  Species H : On-site basis accuracy parameter (for Gram-Schmidt orthonormalisation) not specified.
  Using default value basis_acc =  0.1000000E-03.
  Species H                   : Using default innermost maximum threshold i_radial=  2 for radial functions.
  Species H                   : Basic radial grid will be enhanced according to radial_multiplier =   2, to contain    49 grid points.
 
  Reading configuration options for species O                   .
  | Found nuclear charge :   8.0000
  | Found atomic mass :    15.9994000000000      amu
  | Found l_max for Hartree potential  :   4
  | Found cutoff potl. onset [A], width [A], scale factor :    4.00000    2.00000    1.00000
  | Found cutoff specification for free atom: Cutoff potential begins at    8.00000 A.
  | Threshold for basis-dependent cutoff potential is   0.100000E-03
  | Found logarithmic grid data [bohr] : 0.1000E-03 0.1000E+03 0.1012E+01
  | Found data for basic radial integration grid :    36 points, outermost radius =    7.000 A
  | Found multiplier for basic radial grid :   2
  | Found angular grid specification: user-specified.
  | Specified grid contains     4 separate shells.
  | Check grid settings after all constraints further below.
  | Found free-atom valence shell :  2 s   2.000
  | Found free-atom valence shell :  2 p   4.000
  | No ionic wave fns used. Skipping ion_occ.
  | No ionic wave fns used. Skipping ion_occ.
  | Found hydrogenic basis function :  2 p   1.800
  | Found hydrogenic basis function :  3 d   7.600
  | Found hydrogenic basis function :  3 s   6.400
  | Found hydrogenic basis function :  4 f  11.600
  | Found hydrogenic basis function :  3 p   6.200
  | Found hydrogenic basis function :  3 d   5.600
  | Found hydrogenic basis function :  5 g  17.600
  | Found hydrogenic basis function :  1 s   0.750
  Species O                   : Missing cutoff potential type.
  Defaulting to exp(1/x)/(1-x)^2 type cutoff potential.
  Species O : On-site basis accuracy parameter (for Gram-Schmidt orthonormalisation) not specified.
  Using default value basis_acc =  0.1000000E-03.
  Species O                   : Using default innermost maximum threshold i_radial=  2 for radial functions.
  Species O                   : Basic radial grid will be enhanced according to radial_multiplier =   2, to contain    73 grid points.
 
  Finished reading input file 'control.in'. Consistency checks are next.
 
  Target number of points in a grid batch is not set. Defaulting to  100
  Method for grid partitioning is not set. Defaulting to parallel hash+maxmin partitioning.
  Batch size limit is not set. Defaulting to    200
  By default, will store active basis functions for each batch.
  If in need of memory, prune_basis_once .false. can be used to disable this option.
  communication_type for Hartree potential was not specified.
  Defaulting to calc_hartree .
  Pulay mixer: Number of initial linear mixing iterations not set.
  Defaulting to    0 iterations.
  Work space size for distributed Hartree potential not set.
  Defaulting to   0.200000E+03 MB.
  Algorithm-dependent basis array size parameters:
  | n_max_pulay                         :       10
  Geometry relaxation not requested: no relaxation will be performed.
  Handling of forces: Unphysical translation and rotation will be removed from forces.
  No accuracy limit for integral partition fn. given. Defaulting to 0.1000E-14.
  No threshold value for u(r) in integrations given. Defaulting to 0.1000E-05.
  No accuracy for occupation numbers given. Defaulting to 0.1000E-07.
  No threshold value for occupation numbers given. Defaulting to 0.0000E+00.
  No accuracy for fermi level given. Defaulting to 0.1000E-19.
  Maximum # of iterations to find E_F not set. Defaulting to  200.
  Will not use alltoall communication since running on < 1024 CPUs.
  Partitioning for Hartree potential was not defined. Using partition_type for integrals.
  | Reporting present value of keyword multip_moments_threshold  :       0.10000000E-09
  | This value may affect high angular momentum components of the Hartree potential in periodic systems.
  No q(lm)/r^(l+1) cutoff set for long-range Hartree potential.
  | Using default value of  0.100000E-09 .
  | Verify using the multipole_threshold keyword.
  Defaulting to new monopole extrapolation.
  Density update method: Loop over occupied states selected for charge density update.
------------------------------------------------------------


------------------------------------------------------------
          Reading geometry description geometry.in.
------------------------------------------------------------
  Input structure read successfully.
  The structure contains       13 atoms,  and a total of         41.000 electrons.

  Input geometry:
  | No unit cell requested.
  | Atomic structure:
  |       Atom                x [A]            y [A]            z [A]
  |    1: Species O             -4.053030         0.065001        -1.525160
  |    2: Species H             -4.566710         0.974813        -1.912820
  |    3: Species H             -3.067820         0.330172        -1.477310
  |    4: Species H             -4.370360        -0.049164        -0.572274
  |    5: Species O             -4.581760        -0.256435         0.939478
  |    6: Species H             -4.349860         0.471090         1.504340
  |    7: Species H             -5.393870        -0.726611         1.228070
  |    8: Species O             -3.818880         2.024990         2.187990
  |    9: Species H             -3.690880         1.961360         3.202150
  |   10: Species H             -4.546490         2.751300         2.045370
  |   11: Species O             -1.975360         2.858040         0.453140
  |   12: Species H             -1.223550         3.375850         0.786238
  |   13: Species H             -2.537520         2.567960         1.156120
  |

  | The smallest distance between any two atoms is         0.94570141 AA.
  |
  | The first atom of this pair is atom number                     11 .
  | The second atom of this pair is atom number                    13 .

  Structure-dependent array size parameters: 
  | Maximum number of distinct radial functions  :       18
  | Maximum number of basis functions            :      291
  | Number of Kohn-Sham states (occupied + empty):       73
------------------------------------------------------------

------------------------------------------------------------
          Preparing all fixed parts of the calculation.
------------------------------------------------------------
  Determining machine precision:
    2.225073858507201E-308
  Setting up grids for atomic and cluster calculations.

  Creating wave function, potential, and density for free atoms.

  Species: H

  List of occupied orbitals and eigenvalues:
    n    l              occ      energy [Ha]    energy [eV]
    1    0           1.0000        -0.241408        -6.5691


  Species: O

  List of occupied orbitals and eigenvalues:
    n    l              occ      energy [Ha]    energy [eV]
    1    0           2.0000       -18.944147      -515.4965
    2    0           2.0000        -0.883529       -24.0421
    2    1           4.0000        -0.330176        -8.9845

  Creating fixed part of basis set: Ionic, confined, hydrogenic.
 
  H                    hydrogenic:
 
  List of hydrogenic basis orbitals: 
    n    l      effective z      eigenvalue [eV]  inner max. [A]     outer max. [A]     outer radius [A]   
    2    0         2.100000       -14.9965           0.193241           1.317192           5.372934
    2    1         3.500000       -41.6672           0.602363           0.602363           4.056010
    1    0         0.850000        -9.8292           0.624864           0.624864           5.372934
    2    1         3.700000       -46.5653           0.573616           0.573616           3.909951
    2    0         1.200000        -4.5995           0.334977           2.228160           5.505921
    3    2         7.000000       -74.0753           0.680692           0.680692           3.769152
 
 
  O                    hydrogenic:
 
  List of hydrogenic basis orbitals: 
    n    l      effective z      eigenvalue [eV]  inner max. [A]     outer max. [A]     outer radius [A]   
    2    1         1.800000       -11.0118           1.178546           1.178546           5.432516
    3    2         7.600000       -87.3182           0.624117           0.624117           3.541422
    3    0         6.400000       -61.9209           0.061166           1.081887           4.306510
    4    3        11.600000      -114.4238           0.731621           0.731621           3.584982
    3    1         6.200000       -58.1113           0.255677           1.030255           4.306510
    3    2         5.600000       -47.4081           0.847222           0.847222           4.413102
    5    4        17.600000      -168.5799           0.749730           0.749730           3.372413
    1    0         0.750000        -7.6499           0.705275           0.705275           5.366508
 

  Adding cutoff potential to free-atom effective potential.
  Creating atomic-like basis functions for current effective potential.

  Species H                   :

  List of atomic basis orbitals and eigenvalues:
    n    l      energy [Ha]    energy [eV]    outer radius [A]
    1    0        -0.241374        -6.5681       5.372934


  Species O                   :

  List of atomic basis orbitals and eigenvalues:
    n    l      energy [Ha]    energy [eV]    outer radius [A]
    1    0       -18.944147      -515.4965       1.415745
    2    0        -0.883529       -24.0421       5.048305
    2    1        -0.330173        -8.9845       5.301302

  Assembling full basis from fixed parts.
  | Species H :   atomic orbital   1 s accepted.
  | Species H :    hydro orbital   2 s accepted.
  | Species H :    hydro orbital   1 s accepted.
  | Species H :    hydro orbital   2 s accepted.
  | Species H :    hydro orbital   2 p accepted.
  | Species H :    hydro orbital   2 p accepted.
  | Species H :    hydro orbital   3 d accepted.
  | Species O :   atomic orbital   1 s accepted.
  | Species O :    hydro orbital   3 s accepted.
  | Species O :   atomic orbital   2 s accepted.
  | Species O :    hydro orbital   1 s accepted.
  | Species O :    hydro orbital   3 p accepted.
  | Species O :   atomic orbital   2 p accepted.
  | Species O :    hydro orbital   2 p accepted.
  | Species O :    hydro orbital   3 d accepted.
  | Species O :    hydro orbital   3 d accepted.
  | Species O :    hydro orbital   4 f accepted.
  | Species O :    hydro orbital   5 g accepted.
 
  Basis size parameters after reduction:
  | Total number of radial functions:       18
  | Total number of basis functions :      291
 
  Testing on-site integration grid accuracy.
  |  Species  Function  <phi|h_atom|phi> (log., in eV)  <phi|h_atom|phi> (rad., in eV)
           1        1                 -6.5683835025                 -6.5684759159
           1        2                 13.3711789951                 13.3708738703
           1        3                 23.6590910787                 23.6532055418
           1        4                 16.2963827186                 16.1870710655 ***
           1        5                 28.7627214838                 28.7627215090
           1        6                 59.5965249172                 59.5965950857
           1        7                 60.2220506392                 60.2220503827
           2        8               -515.4964576505               -515.4964530710
           2        9                 15.3030791347                 15.3030722972
           2       10                -21.7296094581                -21.7296135470
           2       11                 14.2969371730                 14.2969701621
           2       12                 21.0679693190                 21.0679697493
           2       13                 -2.3833606469                 -2.3833613176
           2       14                 13.7067136422                 13.7066766629
           2       15                 45.8013116808                 45.8013116965
           2       16                 52.2309815402                 52.2309831494
           2       17                 85.4120732416                 85.4120732763
           2       18                142.1019167745                142.1019167817
 * Note: Onsite integrals marked "***" above are less accurate than
 * onsite_accuracy_threshold =    0.03000 eV. Usually, this is harmless.
 * When in doubt, tighten the "radial" and/or "radial_multiplier" flags to check.

  Preparing densities etc. for the partition functions (integrals / Hartree potential).

  Preparations completed.
  max(cpu_time)          :      0.173 s.
  Wall clock time (cpu1) :      0.615 s.
------------------------------------------------------------

------------------------------------------------------------
          Begin self-consistency loop: Initialization.

          Date     :  20150727, Time     :  122653.447
------------------------------------------------------------

  Initializing index lists of integration centers etc. from given atomic structure:
  | Number of centers in hartree potential         :        13
  | Number of centers in hartree multipole         :        13
  | Number of centers in electron density summation:        13
  | Number of centers in basis integrals           :        13
  | Number of centers in integrals                 :        13
  Partitioning the integration grid into batches with parallel hashing+maxmin method.
  | Number of batches:     1986
  | Maximal batch size:     190
  | Minimal batch size:      49
  | Average batch size:      85.077
  | Standard deviation of batch sizes:      28.085

  Integration load balanced across     8 MPI tasks.
  Work distribution over tasks is as follows:
  Task     0 has      21130 integration points.
  Task     1 has      21165 integration points.
  Task     2 has      21072 integration points.
  Task     3 has      21074 integration points.
  Task     4 has      21161 integration points.
  Task     5 has      21160 integration points.
  Task     6 has      21073 integration points.
  Task     7 has      21127 integration points.
  Initializing partition tables, free-atom densities, potentials, etc. across the integration grid (initialize_grid_storage).
  | Net number of integration points:   168962
  | of which are non-zero points    :   168457
  Obtaining max. number of non-zero basis functions in each batch (get_n_compute_maxes).
  | Maximal number of non-zero basis functions:      289 in task     0
  | Maximal number of non-zero basis functions:      289 in task     1
  | Maximal number of non-zero basis functions:      289 in task     2
  | Maximal number of non-zero basis functions:      289 in task     3
  | Maximal number of non-zero basis functions:      289 in task     4
  | Maximal number of non-zero basis functions:      289 in task     5
  | Maximal number of non-zero basis functions:      289 in task     6
  | Maximal number of non-zero basis functions:      289 in task     7
  Integrating Hamiltonian matrix: batch-based integration.
  Time summed over all CPUs for integration: real work        5.533 s, elapsed        5.671 s
  Integrating overlap matrix.
  Time summed over all CPUs for integration: real work        2.902 s, elapsed        2.968 s

  Updating Kohn-Sham eigenvalues, eigenvectors, occupation numbers, and Fermi level.
  Solving generalized eigenproblem
  Updating Kohn-Sham eigenvalues and eigenfunctions.
  Transforming overlap matrix and checking for singularities.
  Overlap matrix is nonsingular:
  | Lowest eigenvalue:  0.246628E-03
  Solving real generalised eigenvalue problem by standard LAPACK (fast)
  Determining occupation numbers for Kohn-Sham eigenstates.
  | Chemical potential (Fermi level) in eV                 : -.28533325E+01
  | Error in electron count due to remaining E_F inaccuracy: 0.55521809E-10
  | Maximum occupation number of highest empty state:  0.00E+00

  Writing Kohn-Sham eigenvalues.

  State    Occupation    Eigenvalue [Ha]    Eigenvalue [eV]
      1       2.00000         -19.064909         -518.78258
      2       2.00000         -19.059286         -518.62955
      3       2.00000         -19.054638         -518.50308
      4       2.00000         -19.035961         -517.99485
      5       2.00000          -1.124866          -30.60917
      6       2.00000          -1.106168          -30.10037
      7       2.00000          -1.104100          -30.04409
      8       2.00000          -1.069012          -29.08929
      9       2.00000          -0.655306          -17.83180
     10       2.00000          -0.651574          -17.73024
     11       2.00000          -0.639721          -17.40769
     12       2.00000          -0.602271          -16.38862
     13       2.00000          -0.597460          -16.25771
     14       2.00000          -0.518705          -14.11468
     15       2.00000          -0.510011          -13.87812
     16       2.00000          -0.495131          -13.47320
     17       2.00000          -0.483945          -13.16881
     18       2.00000          -0.446712          -12.15565
     19       2.00000          -0.438935          -11.94403
     20       2.00000          -0.431764          -11.74891
     21       1.00000          -0.104858           -2.85333
     22       0.00000          -0.082150           -2.23541
     23       0.00000          -0.050242           -1.36715
     24       0.00000          -0.043180           -1.17499
     25       0.00000          -0.026450           -0.71973
     26       0.00000          -0.016903           -0.45996
     27       0.00000           0.038153            1.03818
     28       0.00000           0.046658            1.26962
     29       0.00000           0.057605            1.56751
     30       0.00000           0.062612            1.70376
     31       0.00000           0.074591            2.02971
     32       0.00000           0.090270            2.45638
     33       0.00000           0.098667            2.68488
     34       0.00000           0.102556            2.79070
     35       0.00000           0.109432            2.97781
     36       0.00000           0.121366            3.30253
     37       0.00000           0.127060            3.45747
     38       0.00000           0.137946            3.75371
     39       0.00000           0.146509            3.98672
     40       0.00000           0.154516            4.20459
     41       0.00000           0.163660            4.45341
     42       0.00000           0.183014            4.98007
     43       0.00000           0.206052            5.60695
     44       0.00000           0.226746            6.17006
     45       0.00000           0.232063            6.31476
     46       0.00000           0.235329            6.40362
     47       0.00000           0.262675            7.14774
     48       0.00000           0.272539            7.41618
     49       0.00000           0.290980            7.91797
     50       0.00000           0.323860            8.81269
     51       0.00000           0.334521            9.10278
     52       0.00000           0.339021            9.22523
     53       0.00000           0.353852            9.62879
     54       0.00000           0.383869           10.44560
     55       0.00000           0.387641           10.54826
     56       0.00000           0.393950           10.71992
     57       0.00000           0.412341           11.22038
     58       0.00000           0.425662           11.58284
     59       0.00000           0.441753           12.02071
     60       0.00000           0.454804           12.37586
     61       0.00000           0.472637           12.86112
     62       0.00000           0.485587           13.21349
     63       0.00000           0.522301           14.21255
     64       0.00000           0.531852           14.47244
     65       0.00000           0.556569           15.14500
     66       0.00000           0.569339           15.49250
     67       0.00000           0.605063           16.46459
     68       0.00000           0.637104           17.33648
     69       0.00000           0.683694           18.60426
     70       0.00000           0.713239           19.40822
     71       0.00000           0.741494           20.17707
     72       0.00000           0.756397           20.58262
     73       0.00000           0.775713           21.10823

  Highest occupied state (VBM) at     -2.85333252 eV
  | Occupation number:      1.00000000

  Lowest unoccupied state (CBM) at    -2.23541152 eV
  | Occupation number:      0.00000000

  Overall HOMO-LUMO gap:      0.61792100 eV.
  Calculating total energy contributions from superposition of free atom densities.

  Total energy components:
  | Sum of eigenvalues            :        -174.28580912 Ha       -4742.55816479 eV
  | XC energy correction          :         -36.82142803 Ha       -1001.96203599 eV
  | XC potential correction       :          47.06185535 Ha        1280.61824111 eV
  | Free-atom electrostatic energy:        -142.86842800 Ha       -3887.64772735 eV
  | Hartree energy correction     :           0.00000000 Ha           0.00000000 eV
  | van der Waals energy corr.    :           0.00000000 Ha           0.00000000 eV
  | Entropy correction            :          -0.00010367 Ha          -0.00282095 eV
  | ---------------------------
  | Total energy                  :        -306.91380981 Ha       -8351.54968702 eV
  | Total energy, T -> 0          :        -306.91391348 Ha       -8351.55250797 eV  <-- do not rely on this value for anything but (periodic) metals
  | Electronic free energy        :        -306.91401714 Ha       -8351.55532892 eV

  Derived energy quantities:
  | Kinetic energy                :         304.02624764 Ha        8272.97512249 eV
  | Electrostatic energy          :        -574.11862941 Ha      -15622.56277352 eV
  | Energy correction for multipole
  | error in Hartree potential    :           0.00000000 Ha           0.00000000 eV
  | Sum of eigenvalues per atom                           :        -364.81216652 eV
  | Total energy (T->0) per atom                          :        -642.42711600 eV  <-- do not rely on this value for anything but (periodic) metals
  | Electronic free energy per atom                       :        -642.42733299 eV
  Initialize hartree_potential_storage
  Max. number of atoms included in rho_multipole:           13

  End scf initialization - timings             :  max(cpu_time)    wall_clock(cpu1)
  | Time for scf. initialization               :        1.512 s           1.512 s
  | Boundary condition initialization          :        0.000 s           0.000 s
  | Integration                                :        1.083 s           1.083 s
  | Solution of K.-S. eqns.                    :        0.135 s           0.135 s
  | Grid partitioning                          :        0.128 s           0.128 s
  | Preloading free-atom quantities on grid    :        0.013 s           0.013 s
  | Free-atom superposition energy             :        0.052 s           0.051 s
  | Total energy evaluation                    :        0.000 s           0.000 s
------------------------------------------------------------

------------------------------------------------------------
          Begin self-consistency iteration #    1

  Date     :  20150727, Time     :  122654.959
------------------------------------------------------------
  Evaluating new KS density.
  Integration grid: deviation in total charge (<rho> - N_e) =   5.552891E-11
  Pulay mixing of updated and previous charge densities.

  Evaluating partitioned Hartree potential by multipole expansion.
  | Analytical far-field extrapolation by fixed multipoles:
  | Hartree multipole sum: apparent total charge =  -0.724792E-06
  Summing up the Hartree potential.
  Time summed over all CPUs for potential: real work        1.921 s, elapsed        1.929 s
  | RMS charge density error from multipole expansion :   0.150465E-02

  Integrating Hamiltonian matrix: batch-based integration.
  Time summed over all CPUs for integration: real work        5.506 s, elapsed        5.645 s

  Updating Kohn-Sham eigenvalues, eigenvectors, occupation numbers, and Fermi level.
  Solving generalized eigenproblem
  Updating Kohn-Sham eigenvalues and eigenfunctions.
  Solving real generalised eigenvalue problem by standard LAPACK (fast)
  Determining occupation numbers for Kohn-Sham eigenstates.
  | Chemical potential (Fermi level) in eV                 : -.26527589E+01
  | Error in electron count due to remaining E_F inaccuracy: -.57271023E-08
  | Maximum occupation number of highest empty state:  0.00E+00

  Writing Kohn-Sham eigenvalues.

  State    Occupation    Eigenvalue [Ha]    Eigenvalue [eV]
      1       2.00000         -19.010891         -517.31265
      2       2.00000         -18.984261         -516.58804
      3       2.00000         -18.972566         -516.26980
      4       2.00000         -18.966476         -516.10408
      5       2.00000          -1.097231          -29.85717
      6       2.00000          -1.069832          -29.11160
      7       2.00000          -1.060352          -28.85365
      8       2.00000          -1.037453          -28.23055
      9       2.00000          -0.623551          -16.96768
     10       2.00000          -0.615764          -16.75579
     11       2.00000          -0.612079          -16.65552
     12       2.00000          -0.580373          -15.79275
     13       2.00000          -0.572234          -15.57128
     14       2.00000          -0.486431          -13.23647
     15       2.00000          -0.474355          -12.90786
     16       2.00000          -0.458522          -12.47701
     17       2.00000          -0.450596          -12.26135
     18       2.00000          -0.409259          -11.13649
     19       2.00000          -0.399285          -10.86510
     20       2.00000          -0.390371          -10.62253
     21       1.00000          -0.097487           -2.65276
     22       0.00000          -0.075569           -2.05634
     23       0.00000          -0.042471           -1.15571
     24       0.00000          -0.035445           -0.96450
     25       0.00000          -0.018821           -0.51214
     26       0.00000          -0.011222           -0.30536
     27       0.00000           0.045191            1.22971
     28       0.00000           0.050884            1.38463
     29       0.00000           0.064657            1.75942
     30       0.00000           0.069609            1.89416
     31       0.00000           0.078729            2.14233
     32       0.00000           0.095525            2.59936
     33       0.00000           0.105020            2.85775
     34       0.00000           0.111138            3.02421
     35       0.00000           0.118265            3.21815
     36       0.00000           0.130212            3.54325
     37       0.00000           0.140447            3.82176
     38       0.00000           0.149759            4.07516
     39       0.00000           0.157246            4.27887
     40       0.00000           0.169085            4.60103
     41       0.00000           0.173293            4.71555
     42       0.00000           0.193886            5.27590
     43       0.00000           0.213302            5.80424
     44       0.00000           0.234196            6.37280
     45       0.00000           0.238629            6.49342
     46       0.00000           0.243527            6.62670
     47       0.00000           0.270475            7.36000
     48       0.00000           0.277999            7.56473
     49       0.00000           0.297944            8.10746
     50       0.00000           0.330353            8.98935
     51       0.00000           0.341782            9.30036
     52       0.00000           0.347842            9.46527
     53       0.00000           0.362429            9.86219
     54       0.00000           0.390591           10.62853
     55       0.00000           0.395149           10.75254
     56       0.00000           0.401721           10.93138
     57       0.00000           0.419270           11.40892
     58       0.00000           0.433222           11.78856
     59       0.00000           0.447455           12.17587
     60       0.00000           0.462792           12.59321
     61       0.00000           0.482845           13.13888
     62       0.00000           0.495500           13.48325
     63       0.00000           0.532652           14.49420
     64       0.00000           0.543391           14.78643
     65       0.00000           0.565474           15.38732
     66       0.00000           0.579556           15.77053
     67       0.00000           0.617308           16.79779
     68       0.00000           0.648881           17.65695
     69       0.00000           0.693150           18.86158
     70       0.00000           0.724667           19.71919
     71       0.00000           0.749144           20.38525
     72       0.00000           0.766676           20.86232
     73       0.00000           0.788122           21.44590

  Highest occupied state (VBM) at    -10.62253356 eV
  | Occupation number:      2.00000000

  Lowest unoccupied state (CBM) at    -2.65275892 eV
  | Occupation number:      0.99999999

  Overall HOMO-LUMO gap:      7.96977464 eV.

  Total energy components:
  | Sum of eigenvalues            :        -172.64125340 Ha       -4697.80752694 eV
  | XC energy correction          :         -36.99603130 Ha       -1006.71323272 eV
  | XC potential correction       :          47.28981933 Ha        1286.82145671 eV
  | Free-atom electrostatic energy:        -142.86842800 Ha       -3887.64772735 eV
  | Hartree energy correction     :          -1.60124602 Ha         -43.57212119 eV
  | van der Waals energy corr.    :           0.00000000 Ha           0.00000000 eV
  | Entropy correction            :          -0.00010367 Ha          -0.00282095 eV
  | ---------------------------
  | Total energy                  :        -306.81713940 Ha       -8348.91915149 eV
  | Total energy, T -> 0          :        -306.81724307 Ha       -8348.92197244 eV  <-- do not rely on this value for anything but (periodic) metals
  | Electronic free energy        :        -306.81734674 Ha       -8348.92479339 eV

  Derived energy quantities:
  | Kinetic energy                :         305.09653708 Ha        8302.09918002 eV
  | Electrostatic energy          :        -574.91764518 Ha      -15644.30509879 eV
  | Energy correction for multipole
  | error in Hartree potential    :           0.00049565 Ha           0.01348738 eV
  | Sum of eigenvalues per atom                           :        -361.36980976 eV
  | Total energy (T->0) per atom                          :        -642.22476711 eV  <-- do not rely on this value for anything but (periodic) metals
  | Electronic free energy per atom                       :        -642.22498411 eV

  Self-consistency convergence accuracy:
  | Change of charge density      : 0.5670E+00
  | Change of sum of eigenvalues  : 0.4475E+02 eV
  | Change of total energy        : 0.2631E+01 eV

  End self-consistency iteration #     1       :  max(cpu_time)    wall_clock(cpu1)
  | Time for this iteration                    :        1.474 s           1.473 s
  | Charge density update                      :        0.481 s           0.481 s
  | Density mixing                             :        0.003 s           0.003 s
  | Hartree multipole update                   :        0.005 s           0.004 s
  | Hartree multipole summation                :        0.242 s           0.242 s
  | Integration                                :        0.707 s           0.707 s
  | Solution of K.-S. eqns.                    :        0.035 s           0.035 s
  | Total energy evaluation                    :        0.001 s           0.000 s
------------------------------------------------------------

------------------------------------------------------------
          Begin self-consistency iteration #    2

  Date     :  20150727, Time     :  122656.433
------------------------------------------------------------
  Evaluating new KS density.
  Integration grid: deviation in total charge (<rho> - N_e) =  -5.727081E-09
  Pulay mixing of updated and previous charge densities.

  Evaluating partitioned Hartree potential by multipole expansion.
  | Analytical far-field extrapolation by fixed multipoles:
  | Hartree multipole sum: apparent total charge =  -0.237791E-05
  Summing up the Hartree potential.
  Time summed over all CPUs for potential: real work        1.922 s, elapsed        1.930 s
  | RMS charge density error from multipole expansion :   0.613429E-02

  Integrating Hamiltonian matrix: batch-based integration.
  Time summed over all CPUs for integration: real work        5.494 s, elapsed        5.644 s

  Updating Kohn-Sham eigenvalues, eigenvectors, occupation numbers, and Fermi level.
  Solving generalized eigenproblem
  Updating Kohn-Sham eigenvalues and eigenfunctions.
  Solving real generalised eigenvalue problem by standard LAPACK (fast)
  Determining occupation numbers for Kohn-Sham eigenstates.
  | Chemical potential (Fermi level) in eV                 : -.21808028E+01
  | Error in electron count due to remaining E_F inaccuracy: 0.00000000E+00
  | Maximum occupation number of highest empty state:  0.00E+00

  Highest occupied state (VBM) at     -2.18080279 eV
  | Occupation number:      1.00000000

  Lowest unoccupied state (CBM) at    -2.18080279 eV
  | Occupation number:      1.00000000

  Overall HOMO-LUMO gap:      0.00000000 eV.

  Total energy components:
  | Sum of eigenvalues            :        -168.68003155 Ha       -4590.01719605 eV
  | XC energy correction          :         -37.43851209 Ha       -1018.75374755 eV
  | XC potential correction       :          47.86621743 Ha        1302.50604711 eV
  | Free-atom electrostatic energy:        -142.86842800 Ha       -3887.64772735 eV
  | Hartree energy correction     :          -5.58594449 Ha        -152.00128335 eV
  | van der Waals energy corr.    :           0.00000000 Ha           0.00000000 eV
  | Entropy correction            :          -0.00010367 Ha          -0.00282095 eV
  | ---------------------------
  | Total energy                  :        -306.70669871 Ha       -8345.91390719 eV
  | Total energy, T -> 0          :        -306.70680237 Ha       -8345.91672814 eV  <-- do not rely on this value for anything but (periodic) metals
  | Electronic free energy        :        -306.70690604 Ha       -8345.91954909 eV

  Derived energy quantities:
  | Kinetic energy                :         307.33816944 Ha        8363.09710007 eV
  | Electrostatic energy          :        -576.60635605 Ha      -15690.25725971 eV
  | Energy correction for multipole
  | error in Hartree potential    :           0.00122737 Ha           0.03339836 eV
  | Sum of eigenvalues per atom                           :        -353.07824585 eV
  | Total energy (T->0) per atom                          :        -641.99359447 eV  <-- do not rely on this value for anything but (periodic) metals
  | Electronic free energy per atom                       :        -641.99381147 eV

  Self-consistency convergence accuracy:
  | Change of charge density      : 0.4313E+00
  | Change of sum of eigenvalues  : 0.1078E+03 eV
  | Change of total energy        : 0.3005E+01 eV

  End self-consistency iteration #     2       :  max(cpu_time)    wall_clock(cpu1)
  | Time for this iteration                    :        1.470 s           1.469 s
  | Charge density update                      :        0.477 s           0.476 s
  | Density mixing                             :        0.004 s           0.005 s
  | Hartree multipole update                   :        0.005 s           0.004 s
  | Hartree multipole summation                :        0.242 s           0.242 s
  | Integration                                :        0.706 s           0.707 s
  | Solution of K.-S. eqns.                    :        0.035 s           0.035 s
  | Total energy evaluation                    :        0.000 s           0.000 s
------------------------------------------------------------

------------------------------------------------------------
          Begin self-consistency iteration #    3

  Date     :  20150727, Time     :  122657.903
------------------------------------------------------------
  Evaluating new KS density.
  Integration grid: deviation in total charge (<rho> - N_e) =   2.131628E-14
  Pulay mixing of updated and previous charge densities.

  Evaluating partitioned Hartree potential by multipole expansion.
  | Analytical far-field extrapolation by fixed multipoles:
  | Hartree multipole sum: apparent total charge =  -0.186335E-05
  Summing up the Hartree potential.
  Time summed over all CPUs for potential: real work        1.921 s, elapsed        1.930 s
  | RMS charge density error from multipole expansion :   0.122747E-01

  Integrating Hamiltonian matrix: batch-based integration.
  Time summed over all CPUs for integration: real work        5.492 s, elapsed        5.643 s

  Updating Kohn-Sham eigenvalues, eigenvectors, occupation numbers, and Fermi level.
  Solving generalized eigenproblem
  Updating Kohn-Sham eigenvalues and eigenfunctions.
  Solving real generalised eigenvalue problem by standard LAPACK (fast)
  Determining occupation numbers for Kohn-Sham eigenstates.
  | Chemical potential (Fermi level) in eV                 : -.22562789E+01
  | Error in electron count due to remaining E_F inaccuracy: 0.43549164E-10
  | Maximum occupation number of highest empty state:  0.00E+00

  Highest occupied state (VBM) at     -2.25627888 eV
  | Occupation number:      1.00000000

  Lowest unoccupied state (CBM) at    -1.61778622 eV
  | Occupation number:      0.00000000

  Overall HOMO-LUMO gap:      0.63849266 eV.

  Total energy components:
  | Sum of eigenvalues            :        -169.07181761 Ha       -4600.67823697 eV
  | XC energy correction          :         -37.41689589 Ha       -1018.16554082 eV
  | XC potential correction       :          47.83082186 Ha        1301.54288470 eV
  | Free-atom electrostatic energy:        -142.86842800 Ha       -3887.64772735 eV
  | Hartree energy correction     :          -5.17984378 Ha        -140.95072064 eV
  | van der Waals energy corr.    :           0.00000000 Ha           0.00000000 eV
  | Entropy correction            :          -0.00010367 Ha          -0.00282095 eV
  | ---------------------------
  | Total energy                  :        -306.70616341 Ha       -8345.89934108 eV
  | Total energy, T -> 0          :        -306.70626708 Ha       -8345.90216203 eV  <-- do not rely on this value for anything but (periodic) metals
  | Electronic free energy        :        -306.70637075 Ha       -8345.90498297 eV

  Derived energy quantities:
  | Kinetic energy                :         305.87310736 Ha        8323.23073254 eV
  | Electrostatic energy          :        -575.16237488 Ha      -15650.96453280 eV
  | Energy correction for multipole
  | error in Hartree potential    :          -0.00145417 Ha          -0.03957001 eV
  | Sum of eigenvalues per atom                           :        -353.89832592 eV
  | Total energy (T->0) per atom                          :        -641.99247400 eV  <-- do not rely on this value for anything but (periodic) metals
  | Electronic free energy per atom                       :        -641.99269100 eV

  Self-consistency convergence accuracy:
  | Change of charge density      : 0.2097E+00
  | Change of sum of eigenvalues  : -.1066E+02 eV
  | Change of total energy        : 0.1457E-01 eV

  End self-consistency iteration #     3       :  max(cpu_time)    wall_clock(cpu1)
  | Time for this iteration                    :        1.470 s           1.469 s
  | Charge density update                      :        0.475 s           0.474 s
  | Density mixing                             :        0.006 s           0.006 s
  | Hartree multipole update                   :        0.004 s           0.004 s
  | Hartree multipole summation                :        0.242 s           0.242 s
  | Integration                                :        0.707 s           0.707 s
  | Solution of K.-S. eqns.                    :        0.035 s           0.035 s
  | Total energy evaluation                    :        0.000 s           0.000 s
------------------------------------------------------------

------------------------------------------------------------
          Begin self-consistency iteration #    4

  Date     :  20150727, Time     :  122659.372
------------------------------------------------------------
  Evaluating new KS density.
  Integration grid: deviation in total charge (<rho> - N_e) =   4.354206E-11
  Pulay mixing of updated and previous charge densities.

  Evaluating partitioned Hartree potential by multipole expansion.
  | Analytical far-field extrapolation by fixed multipoles:
  | Hartree multipole sum: apparent total charge =  -0.216170E-05
  Summing up the Hartree potential.
  Time summed over all CPUs for potential: real work        1.921 s, elapsed        1.929 s
  | RMS charge density error from multipole expansion :   0.158891E-01

  Integrating Hamiltonian matrix: batch-based integration.
  Time summed over all CPUs for integration: real work        5.491 s, elapsed        5.640 s

  Updating Kohn-Sham eigenvalues, eigenvectors, occupation numbers, and Fermi level.
  Solving generalized eigenproblem
  Updating Kohn-Sham eigenvalues and eigenfunctions.
  Solving real generalised eigenvalue problem by standard LAPACK (fast)
  Determining occupation numbers for Kohn-Sham eigenstates.
  | Chemical potential (Fermi level) in eV                 : -.21117306E+01
  | Error in electron count due to remaining E_F inaccuracy: 0.00000000E+00
  | Maximum occupation number of highest empty state:  0.00E+00

  Highest occupied state (VBM) at     -2.11173062 eV
  | Occupation number:      1.00000000

  Lowest unoccupied state (CBM) at    -2.11173062 eV
  | Occupation number:      1.00000000

  Overall HOMO-LUMO gap:      0.00000000 eV.

  Total energy components:
  | Sum of eigenvalues            :        -168.07660835 Ha       -4573.59721539 eV
  | XC energy correction          :         -37.55122288 Ha       -1021.82076414 eV
  | XC potential correction       :          48.00335798 Ha        1306.23783135 eV
  | Free-atom electrostatic energy:        -142.86842800 Ha       -3887.64772735 eV
  | Hartree energy correction     :          -6.20821399 Ha        -168.93409784 eV
  | van der Waals energy corr.    :           0.00000000 Ha           0.00000000 eV
  | Entropy correction            :          -0.00010367 Ha          -0.00282095 eV
  | ---------------------------
  | Total energy                  :        -306.70111524 Ha       -8345.76197338 eV
  | Total energy, T -> 0          :        -306.70121891 Ha       -8345.76479433 eV  <-- do not rely on this value for anything but (periodic) metals
  | Electronic free energy        :        -306.70132258 Ha       -8345.76761527 eV

  Derived energy quantities:
  | Kinetic energy                :         305.96129874 Ha        8325.63054225 eV
  | Electrostatic energy          :        -575.11119111 Ha      -15649.57175148 eV
  | Energy correction for multipole
  | error in Hartree potential    :          -0.00225385 Ha          -0.06133046 eV
  | Sum of eigenvalues per atom                           :        -351.81517041 eV
  | Total energy (T->0) per atom                          :        -641.98190726 eV  <-- do not rely on this value for anything but (periodic) metals
  | Electronic free energy per atom                       :        -641.98212425 eV

  Self-consistency convergence accuracy:
  | Change of charge density      : 0.1026E+00
  | Change of sum of eigenvalues  : 0.2708E+02 eV
  | Change of total energy        : 0.1374E+00 eV

  End self-consistency iteration #     4       :  max(cpu_time)    wall_clock(cpu1)
  | Time for this iteration                    :        1.470 s           1.470 s
  | Charge density update                      :        0.474 s           0.474 s
  | Density mixing                             :        0.006 s           0.007 s
  | Hartree multipole update                   :        0.004 s           0.005 s
  | Hartree multipole summation                :        0.242 s           0.242 s
  | Integration                                :        0.706 s           0.706 s
  | Solution of K.-S. eqns.                    :        0.035 s           0.035 s
  | Total energy evaluation                    :        0.000 s           0.001 s
------------------------------------------------------------

------------------------------------------------------------
          Begin self-consistency iteration #    5

  Date     :  20150727, Time     :  122700.842
------------------------------------------------------------
  Evaluating new KS density.
  Integration grid: deviation in total charge (<rho> - N_e) =   2.842171E-14
  Pulay mixing of updated and previous charge densities.

  Evaluating partitioned Hartree potential by multipole expansion.
  | Analytical far-field extrapolation by fixed multipoles:
  | Hartree multipole sum: apparent total charge =  -0.217461E-05
  Summing up the Hartree potential.
  Time summed over all CPUs for potential: real work        1.951 s, elapsed        2.065 s
  | RMS charge density error from multipole expansion :   0.162190E-01

  Integrating Hamiltonian matrix: batch-based integration.
  Time summed over all CPUs for integration: real work        5.522 s, elapsed        5.661 s

  Updating Kohn-Sham eigenvalues, eigenvectors, occupation numbers, and Fermi level.
  Solving generalized eigenproblem
  Updating Kohn-Sham eigenvalues and eigenfunctions.
  Solving real generalised eigenvalue problem by standard LAPACK (fast)
  Determining occupation numbers for Kohn-Sham eigenstates.
  | Chemical potential (Fermi level) in eV                 : -.20709460E+01
  | Error in electron count due to remaining E_F inaccuracy: 0.55088378E-09
  | Maximum occupation number of highest empty state:  0.00E+00

  Highest occupied state (VBM) at     -2.07094595 eV
  | Occupation number:      1.00000000

  Lowest unoccupied state (CBM) at    -1.52208361 eV
  | Occupation number:      0.00000000

  Overall HOMO-LUMO gap:      0.54886235 eV.

  Total energy components:
  | Sum of eigenvalues            :        -168.01871123 Ha       -4572.02175448 eV
  | XC energy correction          :         -37.56038011 Ha       -1022.06994507 eV
  | XC potential correction       :          48.01502739 Ha        1306.55537218 eV
  | Free-atom electrostatic energy:        -142.86842800 Ha       -3887.64772735 eV
  | Hartree energy correction     :          -6.26846798 Ha        -170.57369244 eV
  | van der Waals energy corr.    :           0.00000000 Ha           0.00000000 eV
  | Entropy correction            :          -0.00010367 Ha          -0.00282095 eV
  | ---------------------------
  | Total energy                  :        -306.70095993 Ha       -8345.75774716 eV
  | Total energy, T -> 0          :        -306.70106360 Ha       -8345.76056811 eV  <-- do not rely on this value for anything but (periodic) metals
  | Electronic free energy        :        -306.70116727 Ha       -8345.76338906 eV

  Derived energy quantities:
  | Kinetic energy                :         305.98109018 Ha        8326.16909468 eV
  | Electrostatic energy          :        -575.12167000 Ha      -15649.85689677 eV
  | Energy correction for multipole
  | error in Hartree potential    :          -0.00231096 Ha          -0.06288450 eV
  | Sum of eigenvalues per atom                           :        -351.69398111 eV
  | Total energy (T->0) per atom                          :        -641.98158216 eV  <-- do not rely on this value for anything but (periodic) metals
  | Electronic free energy per atom                       :        -641.98179916 eV

  Self-consistency convergence accuracy:
  | Change of charge density      : 0.1950E-01
  | Change of sum of eigenvalues  : 0.1575E+01 eV
  | Change of total energy        : 0.4226E-02 eV

  End self-consistency iteration #     5       :  max(cpu_time)    wall_clock(cpu1)
  | Time for this iteration                    :        1.491 s           1.491 s
  | Charge density update                      :        0.475 s           0.475 s
  | Density mixing                             :        0.008 s           0.008 s
  | Hartree multipole update                   :        0.005 s           0.004 s
  | Hartree multipole summation                :        0.259 s           0.259 s
  | Integration                                :        0.708 s           0.709 s
  | Solution of K.-S. eqns.                    :        0.036 s           0.035 s
  | Total energy evaluation                    :        0.000 s           0.000 s
------------------------------------------------------------

------------------------------------------------------------
          Begin self-consistency iteration #    6

  Date     :  20150727, Time     :  122702.333
------------------------------------------------------------
  Evaluating new KS density.
  Integration grid: deviation in total charge (<rho> - N_e) =   5.508909E-10
  Pulay mixing of updated and previous charge densities.

  Evaluating partitioned Hartree potential by multipole expansion.
  | Analytical far-field extrapolation by fixed multipoles:
  | Hartree multipole sum: apparent total charge =  -0.211010E-05
  Summing up the Hartree potential.
  Time summed over all CPUs for potential: real work        1.920 s, elapsed        1.929 s
  | RMS charge density error from multipole expansion :   0.162245E-01

  Integrating Hamiltonian matrix: batch-based integration.
  Time summed over all CPUs for integration: real work        5.494 s, elapsed        5.631 s

  Updating Kohn-Sham eigenvalues, eigenvectors, occupation numbers, and Fermi level.
  Solving generalized eigenproblem
  Updating Kohn-Sham eigenvalues and eigenfunctions.
  Solving real generalised eigenvalue problem by standard LAPACK (fast)
  Determining occupation numbers for Kohn-Sham eigenstates.
  | Chemical potential (Fermi level) in eV                 : -.20923724E+01
  | Error in electron count due to remaining E_F inaccuracy: -.10906831E-10
  | Maximum occupation number of highest empty state:  0.00E+00

  Highest occupied state (VBM) at     -6.32959143 eV
  | Occupation number:      2.00000000

  Lowest unoccupied state (CBM) at    -2.09237243 eV
  | Occupation number:      1.00000000

  Overall HOMO-LUMO gap:      4.23721900 eV.

  Total energy components:
  | Sum of eigenvalues            :        -168.10610354 Ha       -4574.39982014 eV
  | XC energy correction          :         -37.55072775 Ha       -1021.80729103 eV
  | XC potential correction       :          48.00219218 Ha        1306.20610822 eV
  | Free-atom electrostatic energy:        -142.86842800 Ha       -3887.64772735 eV
  | Hartree energy correction     :          -6.17777821 Ha        -168.10589836 eV
  | van der Waals energy corr.    :           0.00000000 Ha           0.00000000 eV
  | Entropy correction            :          -0.00010367 Ha          -0.00282095 eV
  | ---------------------------
  | Total energy                  :        -306.70084533 Ha       -8345.75462867 eV
  | Total energy, T -> 0          :        -306.70094900 Ha       -8345.75744962 eV  <-- do not rely on this value for anything but (periodic) metals
  | Electronic free energy        :        -306.70105266 Ha       -8345.76027057 eV

  Derived energy quantities:
  | Kinetic energy                :         305.95697120 Ha        8325.51278388 eV
  | Electrostatic energy          :        -575.10708878 Ha      -15649.46012152 eV
  | Energy correction for multipole
  | error in Hartree potential    :          -0.00238072 Ha          -0.06478268 eV
  | Sum of eigenvalues per atom                           :        -351.87690924 eV
  | Total energy (T->0) per atom                          :        -641.98134228 eV  <-- do not rely on this value for anything but (periodic) metals
  | Electronic free energy per atom                       :        -641.98155927 eV

  Self-consistency convergence accuracy:
  | Change of charge density      : 0.1393E-01
  | Change of sum of eigenvalues  : -.2378E+01 eV
  | Change of total energy        : 0.3118E-02 eV

  End self-consistency iteration #     6       :  max(cpu_time)    wall_clock(cpu1)
  | Time for this iteration                    :        1.472 s           1.472 s
  | Charge density update                      :        0.475 s           0.476 s
  | Density mixing                             :        0.010 s           0.009 s
  | Hartree multipole update                   :        0.004 s           0.004 s
  | Hartree multipole summation                :        0.242 s           0.241 s
  | Integration                                :        0.705 s           0.705 s
  | Solution of K.-S. eqns.                    :        0.036 s           0.036 s
  | Total energy evaluation                    :        0.000 s           0.000 s
------------------------------------------------------------

------------------------------------------------------------
          Begin self-consistency iteration #    7

  Date     :  20150727, Time     :  122703.805
------------------------------------------------------------
  Evaluating new KS density.
  Integration grid: deviation in total charge (<rho> - N_e) =  -1.087841E-11
  Pulay mixing of updated and previous charge densities.

  Evaluating partitioned Hartree potential by multipole expansion.
  | Analytical far-field extrapolation by fixed multipoles:
  | Hartree multipole sum: apparent total charge =  -0.209634E-05
  Summing up the Hartree potential.
  Time summed over all CPUs for potential: real work        1.921 s, elapsed        1.929 s
  | RMS charge density error from multipole expansion :   0.162066E-01

  Integrating Hamiltonian matrix: batch-based integration.
  Time summed over all CPUs for integration: real work        5.482 s, elapsed        5.627 s

  Updating Kohn-Sham eigenvalues, eigenvectors, occupation numbers, and Fermi level.
  Solving generalized eigenproblem
  Updating Kohn-Sham eigenvalues and eigenfunctions.
  Solving real generalised eigenvalue problem by standard LAPACK (fast)
  Determining occupation numbers for Kohn-Sham eigenstates.
  | Chemical potential (Fermi level) in eV                 : -.20909691E+01
  | Error in electron count due to remaining E_F inaccuracy: 0.42632564E-13
  | Maximum occupation number of highest empty state:  0.00E+00

  Highest occupied state (VBM) at     -2.09096913 eV
  | Occupation number:      1.00000000

  Lowest unoccupied state (CBM) at    -1.53506025 eV
  | Occupation number:      0.00000000

  Overall HOMO-LUMO gap:      0.55590888 eV.

  Total energy components:
  | Sum of eigenvalues            :        -168.12952119 Ha       -4575.03704690 eV
  | XC energy correction          :         -37.54829250 Ha       -1021.74102452 eV
  | XC potential correction       :          47.99894309 Ha        1306.11769596 eV
  | Free-atom electrostatic energy:        -142.86842800 Ha       -3887.64772735 eV
  | Hartree energy correction     :          -6.15351664 Ha        -167.44570725 eV
  | van der Waals energy corr.    :           0.00000000 Ha           0.00000000 eV
  | Entropy correction            :          -0.00010367 Ha          -0.00282095 eV
  | ---------------------------
  | Total energy                  :        -306.70081524 Ha       -8345.75381005 eV
  | Total energy, T -> 0          :        -306.70091891 Ha       -8345.75663100 eV  <-- do not rely on this value for anything but (periodic) metals
  | Electronic free energy        :        -306.70102258 Ha       -8345.75945195 eV

  Derived energy quantities:
  | Kinetic energy                :         305.97404249 Ha        8325.97731723 eV
  | Electrostatic energy          :        -575.12656523 Ha      -15649.99010276 eV
  | Energy correction for multipole
  | error in Hartree potential    :          -0.00238730 Ha          -0.06496183 eV
  | Sum of eigenvalues per atom                           :        -351.92592668 eV
  | Total energy (T->0) per atom                          :        -641.98127931 eV  <-- do not rely on this value for anything but (periodic) metals
  | Electronic free energy per atom                       :        -641.98149630 eV

  Self-consistency convergence accuracy:
  | Change of charge density      : 0.7025E-02
  | Change of sum of eigenvalues  : -.6372E+00 eV
  | Change of total energy        : 0.8186E-03 eV

  End self-consistency iteration #     7       :  max(cpu_time)    wall_clock(cpu1)
  | Time for this iteration                    :        1.471 s           1.471 s
  | Charge density update                      :        0.474 s           0.474 s
  | Density mixing                             :        0.011 s           0.011 s
  | Hartree multipole update                   :        0.004 s           0.004 s
  | Hartree multipole summation                :        0.242 s           0.242 s
  | Integration                                :        0.705 s           0.705 s
  | Solution of K.-S. eqns.                    :        0.035 s           0.035 s
  | Total energy evaluation                    :        0.000 s           0.000 s
------------------------------------------------------------

------------------------------------------------------------
          Begin self-consistency iteration #    8

  Date     :  20150727, Time     :  122705.277
------------------------------------------------------------
  Evaluating new KS density.
  Integration grid: deviation in total charge (<rho> - N_e) =   7.105427E-14
  Pulay mixing of updated and previous charge densities.

  Evaluating partitioned Hartree potential by multipole expansion.
  | Analytical far-field extrapolation by fixed multipoles:
  | Hartree multipole sum: apparent total charge =  -0.213588E-05
  Summing up the Hartree potential.
  Time summed over all CPUs for potential: real work        1.921 s, elapsed        1.929 s
  | RMS charge density error from multipole expansion :   0.163438E-01

  Integrating Hamiltonian matrix: batch-based integration.
  Time summed over all CPUs for integration: real work        5.482 s, elapsed        5.633 s

  Updating Kohn-Sham eigenvalues, eigenvectors, occupation numbers, and Fermi level.
  Solving generalized eigenproblem
  Updating Kohn-Sham eigenvalues and eigenfunctions.
  Solving real generalised eigenvalue problem by standard LAPACK (fast)
  Determining occupation numbers for Kohn-Sham eigenstates.
  | Chemical potential (Fermi level) in eV                 : -.21025821E+01
  | Error in electron count due to remaining E_F inaccuracy: 0.21412205E-09
  | Maximum occupation number of highest empty state:  0.00E+00

  Highest occupied state (VBM) at     -2.10258215 eV
  | Occupation number:      1.00000000

  Lowest unoccupied state (CBM) at    -1.54637480 eV
  | Occupation number:      0.00000000

  Overall HOMO-LUMO gap:      0.55620735 eV.

  Total energy components:
  | Sum of eigenvalues            :        -168.16904660 Ha       -4576.11258797 eV
  | XC energy correction          :         -37.54593733 Ha       -1021.67693715 eV
  | XC potential correction       :          47.99552052 Ha        1306.02456321 eV
  | Free-atom electrostatic energy:        -142.86842800 Ha       -3887.64772735 eV
  | Hartree energy correction     :          -6.11292052 Ha        -166.34103076 eV
  | van der Waals energy corr.    :           0.00000000 Ha           0.00000000 eV
  | Entropy correction            :          -0.00010367 Ha          -0.00282095 eV
  | ---------------------------
  | Total energy                  :        -306.70081193 Ha       -8345.75372002 eV
  | Total energy, T -> 0          :        -306.70091560 Ha       -8345.75654097 eV  <-- do not rely on this value for anything but (periodic) metals
  | Electronic free energy        :        -306.70101927 Ha       -8345.75936191 eV

  Derived energy quantities:
  | Kinetic energy                :         305.99736881 Ha        8326.61205875 eV
  | Electrostatic energy          :        -575.15224342 Ha      -15650.68884162 eV
  | Energy correction for multipole
  | error in Hartree potential    :          -0.00250062 Ha          -0.06804539 eV
  | Sum of eigenvalues per atom                           :        -352.00866061 eV
  | Total energy (T->0) per atom                          :        -641.98127238 eV  <-- do not rely on this value for anything but (periodic) metals
  | Electronic free energy per atom                       :        -641.98148938 eV

  Self-consistency convergence accuracy:
  | Change of charge density      : 0.5122E-02
  | Change of sum of eigenvalues  : -.1076E+01 eV
  | Change of total energy        : 0.9003E-04 eV

  End self-consistency iteration #     8       :  max(cpu_time)    wall_clock(cpu1)
  | Time for this iteration                    :        1.472 s           1.472 s
  | Charge density update                      :        0.473 s           0.473 s
  | Density mixing                             :        0.011 s           0.012 s
  | Hartree multipole update                   :        0.004 s           0.004 s
  | Hartree multipole summation                :        0.242 s           0.242 s
  | Integration                                :        0.706 s           0.705 s
  | Solution of K.-S. eqns.                    :        0.035 s           0.036 s
  | Total energy evaluation                    :        0.000 s           0.000 s
------------------------------------------------------------

------------------------------------------------------------
          Begin self-consistency iteration #    9

  Date     :  20150727, Time     :  122706.749
------------------------------------------------------------
  Evaluating new KS density.
  Integration grid: deviation in total charge (<rho> - N_e) =   2.141576E-10
  Pulay mixing of updated and previous charge densities.

  Evaluating partitioned Hartree potential by multipole expansion.
  | Analytical far-field extrapolation by fixed multipoles:
  | Hartree multipole sum: apparent total charge =  -0.212546E-05
  Summing up the Hartree potential.
  Time summed over all CPUs for potential: real work        1.920 s, elapsed        1.929 s
  | RMS charge density error from multipole expansion :   0.163453E-01

  Integrating Hamiltonian matrix: batch-based integration.
  Time summed over all CPUs for integration: real work        5.479 s, elapsed        5.620 s

  Updating Kohn-Sham eigenvalues, eigenvectors, occupation numbers, and Fermi level.
  Solving generalized eigenproblem
  Updating Kohn-Sham eigenvalues and eigenfunctions.
  Solving real generalised eigenvalue problem by standard LAPACK (fast)
  Determining occupation numbers for Kohn-Sham eigenstates.
  | Chemical potential (Fermi level) in eV                 : -.21016517E+01
  | Error in electron count due to remaining E_F inaccuracy: 0.00000000E+00
  | Maximum occupation number of highest empty state:  0.00E+00

  Highest occupied state (VBM) at     -2.10165171 eV
  | Occupation number:      1.00000000

  Lowest unoccupied state (CBM) at    -2.10165171 eV
  | Occupation number:      1.00000000

  Overall HOMO-LUMO gap:      0.00000000 eV.

  Total energy components:
  | Sum of eigenvalues            :        -168.17653633 Ha       -4576.31639406 eV
  | XC energy correction          :         -37.54531677 Ha       -1021.66005075 eV
  | XC potential correction       :          47.99469023 Ha        1306.00196992 eV
  | Free-atom electrostatic energy:        -142.86842800 Ha       -3887.64772735 eV
  | Hartree energy correction     :          -6.10522066 Ha        -166.13150672 eV
  | van der Waals energy corr.    :           0.00000000 Ha           0.00000000 eV
  | Entropy correction            :          -0.00010367 Ha          -0.00282095 eV
  | ---------------------------
  | Total energy                  :        -306.70081153 Ha       -8345.75370896 eV
  | Total energy, T -> 0          :        -306.70091520 Ha       -8345.75652991 eV  <-- do not rely on this value for anything but (periodic) metals
  | Electronic free energy        :        -306.70101886 Ha       -8345.75935086 eV

  Derived energy quantities:
  | Kinetic energy                :         306.00102325 Ha        8326.71150105 eV
  | Electrostatic energy          :        -575.15651801 Ha      -15650.80515925 eV
  | Energy correction for multipole
  | error in Hartree potential    :          -0.00251243 Ha          -0.06836683 eV
  | Sum of eigenvalues per atom                           :        -352.02433800 eV
  | Total energy (T->0) per atom                          :        -641.98127153 eV  <-- do not rely on this value for anything but (periodic) metals
  | Electronic free energy per atom                       :        -641.98148853 eV

  Self-consistency convergence accuracy:
  | Change of charge density      : 0.1241E-02
  | Change of sum of eigenvalues  : -.2038E+00 eV
  | Change of total energy        : 0.1106E-04 eV

  End self-consistency iteration #     9       :  max(cpu_time)    wall_clock(cpu1)
  | Time for this iteration                    :        1.473 s           1.474 s
  | Charge density update                      :        0.475 s           0.475 s
  | Density mixing                             :        0.012 s           0.013 s
  | Hartree multipole update                   :        0.004 s           0.005 s
  | Hartree multipole summation                :        0.242 s           0.241 s
  | Integration                                :        0.704 s           0.704 s
  | Solution of K.-S. eqns.                    :        0.035 s           0.035 s
  | Total energy evaluation                    :        0.000 s           0.000 s
------------------------------------------------------------

------------------------------------------------------------
          Begin self-consistency iteration #   10

  Date     :  20150727, Time     :  122708.223
------------------------------------------------------------
  Evaluating new KS density.
  Integration grid: deviation in total charge (<rho> - N_e) =   4.263256E-14
[...]
  | Electronic free energy        :        -306.70336745 Ha       -8345.82325926 eV

  Derived energy quantities:
  | Kinetic energy                :         306.00389356 Ha        8326.78960609 eV
  | Electrostatic energy          :        -575.15919908 Ha      -15650.87811497 eV
  | Energy correction for multipole
  | error in Hartree potential    :          -0.00253096 Ha          -0.06887088 eV
  | Sum of eigenvalues per atom                           :        -352.02275597 eV
  | Total energy (T->0) per atom                          :        -641.98618756 eV  <-- do not rely on this value for anything but (periodic) metals
  | Electronic free energy per atom                       :        -641.98640456 eV

  atomic forces [eV/Ang]:
  -----------------------
  atom #    1
   Hellmann-Feynman + Multipole  : -.270545E+01 -.696767E+01 -.864156E+01
   Pulay + GGA                   : 0.313355E+01 0.837865E+01 0.681934E+01
   Van der Waals               : 0.471758E-02 0.565430E-02 -.261525E-02
   ----------------------------------------------------------------
   Total forces(   1)            : 0.432817E+00 0.141663E+01 -.182483E+01
  atom #    2
   Hellmann-Feynman + Multipole  : 0.544088E+00 -.108823E+01 0.448452E+00
   Pulay + GGA                   : -.116921E+00 0.136015E+00 -.586039E-01
   Van der Waals               : 0.257352E-02 0.407026E-02 0.102833E-02
   ----------------------------------------------------------------
   Total forces(   2)            : 0.429740E+00 -.948143E+00 0.390877E+00
  atom #    3
   Hellmann-Feynman + Multipole  : -.696794E+00 -.208951E+00 0.502159E-01
   Pulay + GGA                   : 0.150339E+00 0.225774E-02 -.296738E-04
   Van der Waals               : 0.198189E-03 0.686242E-04 -.124744E-02
   ----------------------------------------------------------------
   Total forces(   3)            : -.546256E+00 -.206624E+00 0.489388E-01
  atom #    4
   Hellmann-Feynman + Multipole  : -.149299E+00 -.136372E+00 0.128732E+01
   Pulay + GGA                   : -.394254E-01 -.131784E-01 0.708608E-01
   Van der Waals               : 0.264022E-02 0.523153E-02 0.385161E-02
   ----------------------------------------------------------------
   Total forces(   4)            : -.186084E+00 -.144318E+00 0.136203E+01
  atom #    5
   Hellmann-Feynman + Multipole  : 0.705812E+01 -.527001E+01 -.746644E+01
   Pulay + GGA                   : -.767388E+01 0.313265E+01 0.599015E+01
   Van der Waals               : 0.508221E-04 -.476056E-02 0.129851E-02
   ----------------------------------------------------------------
   Total forces(   5)            : -.615706E+00 -.214212E+01 -.147499E+01
  atom #    6
   Hellmann-Feynman + Multipole  : 0.718165E-01 0.137356E+01 0.115886E+01
   Pulay + GGA                   : 0.895248E-02 0.474680E-01 0.815365E-01
   Van der Waals               : -.117872E-02 -.399451E-03 0.764395E-02
   ----------------------------------------------------------------
   Total forces(   6)            : 0.795902E-01 0.142062E+01 0.124804E+01
  atom #    7
   Hellmann-Feynman + Multipole  : 0.452735E+00 0.530001E+00 0.110876E+00
   Pulay + GGA                   : -.107386E+00 -.536336E-01 0.459465E-01
   Van der Waals               : 0.364876E-03 0.154362E-02 0.334248E-02
   ----------------------------------------------------------------
   Total forces(   7)            : 0.345714E+00 0.477911E+00 0.160165E+00
  atom #    8
   Hellmann-Feynman + Multipole  : 0.493253E+01 -.516434E+01 -.719724E+01
   Pulay + GGA                   : -.639455E+01 0.630360E+01 0.886966E+01
   Van der Waals               : -.488594E-03 -.212781E-03 -.294059E-02
   ----------------------------------------------------------------
   Total forces(   8)            : -.146251E+01 0.113904E+01 0.166948E+01
  atom #    9
   Hellmann-Feynman + Multipole  : -.297226E+00 0.263055E+00 -.173656E+01
   Pulay + GGA                   : 0.155281E-01 -.675191E-02 0.135096E+00
   Van der Waals               : -.213889E-03 -.227994E-03 -.264248E-03
   ----------------------------------------------------------------
   Total forces(   9)            : -.281912E+00 0.256075E+00 -.160173E+01
  atom #   10
   Hellmann-Feynman + Multipole  : 0.147087E+01 -.149649E+01 0.434032E+00
   Pulay + GGA                   : -.104610E+00 0.941407E-01 -.211826E-01
   Van der Waals               : -.134880E-02 -.165710E-03 -.131984E-02
   ----------------------------------------------------------------
   Total forces(  10)            : 0.136491E+01 -.140252E+01 0.411530E+00
  atom #   11
   Hellmann-Feynman + Multipole  : -.232168E+01 -.293699E+01 -.159956E+02
   Pulay + GGA                   : 0.363869E+01 0.350759E+01 0.139388E+02
   Van der Waals               : -.134468E-02 -.462944E-02 -.473149E-02
   ----------------------------------------------------------------
   Total forces(  11)            : 0.131566E+01 0.565967E+00 -.206155E+01
  atom #   12
   Hellmann-Feynman + Multipole  : -.454469E+00 -.277787E+00 0.203620E+00
   Pulay + GGA                   : 0.932854E-01 0.626026E-01 0.601879E-01
   Van der Waals               : -.388813E-02 -.257074E-02 0.552924E-03
   ----------------------------------------------------------------
   Total forces(  12)            : -.365071E+00 -.217755E+00 0.264361E+00
  atom #   13
   Hellmann-Feynman + Multipole  : -.459860E+00 -.191798E+00 0.135491E+01
   Pulay + GGA                   : -.455464E-01 -.227437E-01 0.611469E-01
   Van der Waals               : -.208239E-02 -.360166E-02 -.459895E-02
   ----------------------------------------------------------------
   Total forces(  13)            : -.507489E+00 -.218144E+00 0.141146E+01
  Timings for vdw_correction_hirshfeld (Tkatchenko-Scheffler 2009):
  | CPU time:        3.919 s, Wall clock time:        3.920 s.
  Removing unitary transformations (pure translations, rotations) from forces on atoms.
  Atomic forces before filtering:
  | Net force on center of mass :  0.340630E-02 -.336423E-02 0.377470E-02 eV/A
  | Net torque on center of mass:  0.219536E-01 -.136016E-01 0.145682E-03 eV
  Atomic forces after filtering:
  | Net force on center of mass :  0.000000E+00 0.223008E-15 0.356812E-15 eV/A
  | Net torque on center of mass:  0.755268E-15 0.944085E-15 -.472042E-15 eV
 
  Energy and forces in a compact form:
  | Total energy uncorrected      :         -0.834581761736412E+04 eV
  | Total energy corrected        :         -0.834582043831204E+04 eV  <-- do not rely on this value for anything but (periodic) metals
  | Electronic free energy        :         -0.834582325925996E+04 eV
  Total atomic forces (unitary forces cleaned) [eV/Ang]:
  |   1          0.432203369704912E+00          0.141609350070723E+01         -0.182461973939913E+01
  |   2          0.429011568810024E+00         -0.948848752012156E+00          0.390853227093805E+00
  |   3         -0.546872567146230E+00         -0.207102055888100E+00          0.488667116804080E-01
  |   4         -0.186510993683698E+00         -0.144525123620393E+00          0.136234171653605E+01
  |   5         -0.615837212409455E+00         -0.214178447353292E+01         -0.147455938210826E+01
  |   6          0.795327893714262E-01          0.142117790416831E+01          0.124815781659243E+01
  |   7          0.345659194466954E+00          0.478315831266315E+00          0.160920649771213E+00
  |   8         -0.146251139579761E+01          0.113987315816534E+01          0.166893042416245E+01
  |   9         -0.281715836241143E+00          0.257280515887547E+00         -0.160228189909791E+01
  |  10          0.136485210188779E+01         -0.140177353586076E+01          0.410852409367396E+00
  |  11          0.131529697052333E+01          0.566246239408302E+00         -0.206275740359564E+01
  |  12         -0.365398790749870E+00         -0.217319625058427E+00          0.262825084375387E+00
  |  13         -0.507709198736430E+00         -0.217633583630298E+00          0.141047038462180E+01
 
  ------------------------------------ 
  Start decomposition of the XC Energy 
  ------------------------------------ 
  Hartree-Fock part   :          0.000000000 Ha              0.000000000 eV
  ------------------------------------ 
  X Energy            :        -36.215450425 Ha           -985.472546364 eV
  C Energy GGA        :         -1.330054756 Ha            -36.192631369 eV
  Total XC Energy     :        -37.545505181 Ha          -1021.665177732 eV
  LDA X and C from self-consistent density 
  X Energy LDA        :        -32.644147815 Ha           -888.292457872 eV
  C Energy LDA        :         -2.678837386 Ha            -72.894874114 eV
  ------------------------------------ 
  End decomposition of the XC Energy 
  ------------------------------------ 
  Performing Hirshfeld analysis of fragment charges and moments.
  ----------------------------------------------------------------------
  | Atom     1: O
  |   Hirshfeld charge        :     -0.12230313
  |   Free atom volume        :     23.95238533
  |   Hirshfeld volume        :     23.02562034
  |   Hirshfeld dipole vector :      0.01472457       0.01683020       0.04004750
  |   Hirshfeld dipole moment :      0.04586797
  |   Hirshfeld second moments:      0.06521178       0.00068281      -0.00787123
  |                                  0.00068281       0.01316118      -0.02458277
  |                                 -0.00787123      -0.02458277       0.03321611
  ----------------------------------------------------------------------
  | Atom     2: H
  |   Hirshfeld charge        :      0.02576555
  |   Free atom volume        :     10.44207651
  |   Hirshfeld volume        :     16.61627587
  |   Hirshfeld dipole vector :      0.03505157      -0.04804066       0.03421574
  |   Hirshfeld dipole moment :      0.06860929
  |   Hirshfeld second moments:     -0.08018101       0.02786844      -0.00529607
  |                                  0.02786844      -0.12495241       0.01562000
  |                                 -0.00529607       0.01562000      -0.07175787
  ----------------------------------------------------------------------
  | Atom     3: H
  |   Hirshfeld charge        :      0.13153695
  |   Free atom volume        :     10.44207651
  |   Hirshfeld volume        :     11.46737202
  |   Hirshfeld dipole vector :      0.05189386       0.00733931       0.02459633
  |   Hirshfeld dipole moment :      0.05789488
  |   Hirshfeld second moments:      0.01953177      -0.00576775       0.00116442
  |                                 -0.00576775       0.01299108       0.00817769
  |                                  0.00116442       0.00817769       0.03129309
  ----------------------------------------------------------------------
  | Atom     4: H
  |   Hirshfeld charge        :      0.09808716
  |   Free atom volume        :     10.44207651
  |   Hirshfeld volume        :     10.48252132
  |   Hirshfeld dipole vector :     -0.00046231      -0.00391512       0.02355827
  |   Hirshfeld dipole moment :      0.02388586
  |   Hirshfeld second moments:      0.04302520       0.01745199       0.00391666
  |                                  0.01745199       0.03649316       0.00449197
  |                                  0.00391666       0.00449197       0.00830651
  ----------------------------------------------------------------------
  | Atom     5: O
  |   Hirshfeld charge        :     -0.23921852
  |   Free atom volume        :     23.95238533
  |   Hirshfeld volume        :     22.17003391
  |   Hirshfeld dipole vector :     -0.01753023       0.02142977      -0.00005882
  |   Hirshfeld dipole moment :      0.02768659
  |   Hirshfeld second moments:      0.02752525       0.05155994      -0.01453900
  |                                  0.05155994       0.02485366       0.01074983
  |                                 -0.01453900       0.01074983       0.04748132
  ----------------------------------------------------------------------
  | Atom     6: H
  |   Hirshfeld charge        :      0.08848229
  |   Free atom volume        :     10.44207651
  |   Hirshfeld volume        :      9.55660991
  |   Hirshfeld dipole vector :      0.01990135       0.02878819       0.02644813
  |   Hirshfeld dipole moment :      0.04386715
  |   Hirshfeld second moments:      0.05244243       0.00971118      -0.01100677
  |                                  0.00971118       0.02664291      -0.01334506
  |                                 -0.01100677      -0.01334506       0.05298054
  ----------------------------------------------------------------------
  | Atom     7: H
  |   Hirshfeld charge        :      0.12539810
  |   Free atom volume        :     10.44207651
  |   Hirshfeld volume        :     10.15785506
  |   Hirshfeld dipole vector :     -0.06285677      -0.04913641       0.02116456
  |   Hirshfeld dipole moment :      0.08254271
  |   Hirshfeld second moments:      0.03369761       0.01794623      -0.00286991
  |                                  0.01794623       0.05166694       0.01066933
  |                                 -0.00286991       0.01066933       0.05548334
  ----------------------------------------------------------------------
  | Atom     8: O
  |   Hirshfeld charge        :     -0.18283261
  |   Free atom volume        :     23.95238533
  |   Hirshfeld volume        :     21.43196660
  |   Hirshfeld dipole vector :      0.01145524      -0.00087087      -0.01202838
  |   Hirshfeld dipole moment :      0.01663319
  |   Hirshfeld second moments:      0.04315165      -0.01847901       0.00911255
  |                                 -0.01847901       0.05248004      -0.00670156
  |                                  0.00911255      -0.00670156       0.06744852
  ----------------------------------------------------------------------
  | Atom     9: H
  |   Hirshfeld charge        :      0.12090626
  |   Free atom volume        :     10.44207651
  |   Hirshfeld volume        :      9.78662964
  |   Hirshfeld dipole vector :      0.02548814      -0.01318336       0.06343746
  |   Hirshfeld dipole moment :      0.06962584
  |   Hirshfeld second moments:      0.05282715      -0.00805054       0.00623883
  |                                 -0.00805054       0.05654647      -0.00212446
  |                                  0.00623883      -0.00212446       0.04320609
  ----------------------------------------------------------------------
  | Atom    10: H
  |   Hirshfeld charge        :      0.11764234
  |   Free atom volume        :     10.44207651
  |   Hirshfeld volume        :     10.71528275
  |   Hirshfeld dipole vector :     -0.02902663       0.04794483      -0.01384574
  |   Hirshfeld dipole moment :      0.05773176
  |   Hirshfeld second moments:      0.02435701       0.00265074      -0.00737349
  |                                  0.00265074       0.04440064       0.00054985
  |                                 -0.00737349       0.00054985       0.03291513
  ----------------------------------------------------------------------
  | Atom    11: O
  |   Hirshfeld charge        :     -0.34903717
  |   Free atom volume        :     23.95238533
  |   Hirshfeld volume        :     23.86257243
  |   Hirshfeld dipole vector :      0.01683704       0.01526067       0.07645952
  |   Hirshfeld dipole moment :      0.07976486
  |   Hirshfeld second moments:      0.00512225       0.06218418      -0.01711157
  |                                  0.06218418      -0.03989552      -0.00035862
  |                                 -0.01711157      -0.00035862      -0.05017230
  ----------------------------------------------------------------------
  | Atom    12: H
  |   Hirshfeld charge        :      0.12268613
  |   Free atom volume        :     10.44207651
  |   Hirshfeld volume        :      8.03263836
  |   Hirshfeld dipole vector :      0.09690568       0.06531159       0.03690145
  |   Hirshfeld dipole moment :      0.12254808
  |   Hirshfeld second moments:      0.08984670       0.01662654      -0.01372463
  |                                  0.01662654       0.07493101      -0.00946134
  |                                 -0.01372463      -0.00946134       0.07857578
  ----------------------------------------------------------------------
  | Atom    13: H
  |   Hirshfeld charge        :      0.06285785
  |   Free atom volume        :     10.44207651
  |   Hirshfeld volume        :      9.45636877
  |   Hirshfeld dipole vector :     -0.02341994      -0.01777083       0.04555107
  |   Hirshfeld dipole moment :      0.05421435
  |   Hirshfeld second moments:      0.04397999       0.01017012       0.02004564
  |                                  0.01017012       0.04875877       0.01467594
  |                                  0.02004564       0.01467594       0.02592433
  ----------------------------------------------------------------------


------------------------------------------------------------------------------
  Final output of selected total energy values:

  The following output summarizes some interesting total energy values
  at the end of a run (AFTER all relaxation, molecular dynamics, etc.).

  | Total energy of the DFT / Hartree-Fock s.c.f. calculation      :          -8345.817617364 eV
  | Final zero-broadening corrected energy (caution - metals only) :          -8345.820438312 eV
  | For reference only, the value of 1 Hartree used in FHI-aims is :             27.211384500 eV

  Before relying on these values, please be sure to understand exactly which
  total energy value is referred to by a given number. Different objects may
  all carry the same name 'total energy'. Definitions:

  Total energy of the DFT / Hartree-Fock s.c.f. calculation:
  | Note that this energy does not include ANY quantities calculated after the
  | s.c.f. cycle, in particular not ANY RPA, MP2, etc. many-body perturbation terms.

  Final zero-broadening corrected energy:
  | For metallic systems only, a broadening of the occupation numbers at the Fermi
  | level can be extrapolated back to zero broadening by an electron-gas inspired
  | formula. For all systems that are not real metals, this value can be
  | meaningless and should be avoided.

------------------------------------------------------------------------------

------------------------------------------------------------
          Leaving FHI-aims.
          Date     :  20150727, Time     :  122725.411

          Computational steps:
          | Number of self-consistency cycles          :           17

          Detailed time accounting                     :  max(cpu_time)    wall_clock(cpu1)
          | Total time                                 :       32.572 s          32.612 s
          | Preparation time                           :        0.173 s           0.615 s
          | Grid partitioning                          :        0.128 s           0.128 s
          | Preloading free-atom quantities on grid    :        0.013 s           0.013 s
          | Free-atom superposition energy             :        0.052 s           0.051 s
          | Total time for integrations                :       13.053 s          13.058 s
          | Total time for solution of K.-S. equations :        0.738 s           0.736 s
          | Total time for density & force components  :       12.156 s          12.157 s
          | Total time for mixing                      :        0.188 s           0.190 s
          | Total time for Hartree multipole update    :        0.074 s           0.074 s
          | Total time for Hartree multipole sum       :        5.334 s           5.331 s
          | Total time for total energy evaluation     :        0.003 s           0.004 s
          | Total time for scaled ZORA corrections     :        0.000 s           0.000 s
          | Total time for TS (2009) vdW correction    :        0.040 s           0.040 s

          Have a nice day.
------------------------------------------------------------
