  MPI-parallelism will be employed.
------------------------------------------------------------
          Invoking FHI-aims ...
          Version 081213
          Compiled on 2013/08/29 at 17:41:06 on host generoso.

          When using FHI-aims, please cite the following reference:

          Volker Blum, Ralf Gehrke, Felix Hanke, Paula Havu,
          Ville Havu, Xinguo Ren, Karsten Reuter, and Matthias Scheffler,
          'Ab Initio Molecular Simulations with Numeric Atom-Centered Orbitals: FHI-aims',
          Computer Physics Communications 180, 2175-2196 (2009)

          For any questions about FHI-aims, please visit the aimsclub website
          with its forums and wiki. Contributions to both the forums and the
          wiki are warmly encouraged - they are for you, and everyone is welcome there.

------------------------------------------------------------

  Date     :  20150727, Time     :  122222.644
  Time zero on CPU 1             :   0.439930000000000E-01  s.
  Internal wall clock time zero  :           207231742.644  s.

  Using        8 parallel tasks.
  Task        0 on host gen59 reporting.
  Task        1 on host gen59 reporting.
  Task        2 on host gen59 reporting.
  Task        3 on host gen59 reporting.
  Task        4 on host gen59 reporting.
  Task        5 on host gen59 reporting.
  Task        6 on host gen59 reporting.
  Task        7 on host gen59 reporting.

  Performing system and environment tests:
  | Environment variable OMP_NUM_THREADS correctly set to 1.
  | Checking for scalapack...
  | No scalapack compiled in.

  Obtaining array dimensions for all initial allocations:
  
  -----------------------------------------------------------------------
  Parsing control.in (first pass over file, find array dimensions only).
  The contents of control.in will be repeated verbatim below
  unless switched off by setting 'verbatim_writeout .false.' .
  in the first line of control.in .
  -----------------------------------------------------------------------
  
  #########################################################################################
  #
  #  Volker Blum, FHI 2008 : Test run input file control.in
  #
  #########################################################################################
  #
  #  Physical model
  #
    xc                 rpbe
    spin               none
    relativistic       atomic_zora scalar
    charge             0.
   vdw_correction_hirshfeld
  #
  #  SCF convergence
  #
    occupation_type    gaussian 0.01
    mixer              pulay
      n_max_pulay        10
      charge_mix_param   0.1
    sc_accuracy_rho    5E-5
    sc_accuracy_eev    5E-3
    sc_accuracy_etot   5E-6
    sc_iter_limit      3000
  #
  #  Eigenvalue solver
  #
    KS_method          lapack
      empty_states       8
      basis_threshold    0.e-5
  #
  #  Efficiency
  #
  #   all previous settings are now default, except stratmann still
  #   undecided. Continue to handle stratmann with care, if at all.
  #
  #  partition_type stratmann
    partition_type rho_r2
  #  hartree_partition_type stratmann
  #
  #  Oprions for large clusters (100's of atoms: memory saving / better scaling)
  #
  # for periodic systems:
  #
    density_update_method orbital
    packed_matrix_format none
  #  k_grid 6 6 6
  #  output k_eigenvalue 1
  #  distributed_spline_storage .true.
  #
  #  Relaxation
  #
  #  relax_geometry   bfgs 5.e-3
    sc_accuracy_forces 5.E-4
    final_forces_cleaned .true.
  #
  #  Output options
  #
  #  output mulliken
    output Hirshfeld
  #  output dipole
  
  #harmonic_length_scale 0.001
  
  ################################################################################
  #
  #  FHI-aims code project
  #  VB, Fritz-Haber Institut, 2007
  #
  #  Suggested "safe" defaults for H atom (to be pasted into control.in file)
  #  Basis constructed for a non-relativistic H2 molecule using the
  #  PW-LDA functional.
  #
  ################################################################################
    species        H
  #     global species definitions
      nucleus             1
      cut_pot             4.0  2.0  1.0
      cut_free_atom       finite 8.0
      logarithmic         0.00010000 100.00  1.0123
      basis_dep_cutoff    1d-4  # 1d-4 is safe default - please check 5d-4 if you wish!
      radial_base         24 7.0
      radial_multiplier   2
      angular_grids       specified
        division   0.2783  110
        division   0.3822  194
        division   0.5626  302
  #      division   0.5922  434
  #      division   0.6227  590
  #      division   0.7206  770
        outer_grid  302
      l_hartree           4
  ################################################################################
  #
  #  Definition of "minimal" basis
  #
  ################################################################################
  #     valence basis states
      valence      1  s   1.
  #     ion occupancy
      ion_occ      1  s   0.5
  ################################################################################
  #
  #  Suggested additional basis functions. For production calculations,
  #  uncomment them one after another (the most important basis functions are
  #  listed first).
  #
  ################################################################################
  #  "First tier" - improvements: -1014.90 meV to -62.69 meV
       hydro 2 s 2.1
       hydro 2 p 3.5
  #  "Second tier" - improvements: -12.89 meV to -1.83 meV
       hydro 1 s 0.85
       hydro 2 p 3.7
       hydro 2 s 1.2
       hydro 3 d 7
  #  "Third tier" - improvements: -0.25 meV to -0.12 meV
  #     hydro 4 f 11.2
  #     hydro 3 p 4.8
  #     hydro 4 d 9
  #     hydro 3 s 3.2
  
  ################################################################################
  #
  #  FHI-aims code project
  #  VB, Fritz-Haber Institut, 2007
  #
  #  Suggested "safe" defaults for O atom (to be pasted into control.in file)
  #  All values have been tested for a non-relativistic, non-spinpolarized O2
  #  molecule using the PW-LDA functional. Validity for PBE is expected.
  #
  #  Constructed for dimers: 1.0 A, 1.208 A, 1.5 A, 2.0 A, 3.0 A
  #
  ################################################################################
    species        O
  #     global species definitions
      nucleus             8
      mass                15.9994
      l_hartree           4
      cut_pot             4.0  2.0  1.0
      cut_free_atom       finite 8.0
      basis_dep_cutoff    1d-4  # 1d-4 is safe default - please check 5d-4 if you wish!
      logarithmic         0.00010000 100.00  1.0123
      radial_base         36 7.0
      radial_multiplier   2
       angular_grids specified
        division   0.4087  110
        division   0.5181  194
        division   0.6184  302
  #      division   0.7315  434
  #      division   0.7934  590
  #      division   0.9656  770
  #      division   1.4041  974
  #      outer_grid 974
        outer_grid 302
  ################################################################################
  #
  #  Definition of "minimal" basis
  #
  ################################################################################
  #     valence basis states
      valence      2  s   2.
      valence      2  p   4.
  #     ion occupancy
      ion_occ      2  s   1.
      ion_occ      2  p   3.
  ################################################################################
  #
  #  Suggested additional basis functions. For production calculations,
  #  uncomment them one after another (the most important basis functions are
  #  listed first).
  #
  ################################################################################
  #  "First tier" - improvements: -699.05 meV to -159.38 meV
       hydro 2 p 1.8
       hydro 3 d 7.6
       hydro 3 s 6.4
  #  "Second tier" - improvements: -49.91 meV to -5.39 meV
       hydro 4 f 11.6
       hydro 3 p 6.2
       hydro 3 d 5.6
       hydro 5 g 17.6
       hydro 1 s 0.75
  #  "Third tier" - improvements: -2.83 meV to -0.50 meV
  #     ionic 2 p auto
  #     hydro 4 f 10.8
  #     hydro 4 d 4.7
  #     hydro 2 s 6.8
  #  "Fourth tier" - improvements: -0.40 meV to -0.12 meV
  #     hydro 3 p 5
  #     hydro 3 s 3.3
  #     hydro 5 g 15.6
  #     hydro 4 f 17.6
  #     hydro 4 d 14
  # Further basis functions - -0.08 meV and below
  #     hydro 3 s 2.1
  #     hydro 4 d 11.6
  #     hydro 3 p 16
  #     hydro 2 s 17.2
  
  
  -----------------------------------------------------------------------
  Completed first pass over input file control.in .
  -----------------------------------------------------------------------
  
  
  -----------------------------------------------------------------------
  Parsing geometry.in (first pass over file, find array dimensions only).
  The contents of geometry.in will be repeated verbatim below
  unless switched off by setting 'verbatim_writeout .false.' .
  in the first line of geometry.in .
  -----------------------------------------------------------------------
  
  atom      -4.053030000      0.065001000     -1.525160000  O
  atom      -4.566710000      0.974813000     -1.912820000  H
  atom      -3.067820000      0.330172000     -1.477310000  H
  atom      -4.370360000     -0.049164000     -0.572274000  H
  atom      -4.581760000     -0.256435000      0.939478000  O
  atom      -4.349860000      0.471090000      1.504340000  H
  atom      -5.393870000     -0.726611000      1.228070000  H
  atom      -1.645860000      0.870179000     -1.502250000  O
  atom      -1.568890000      1.501730000     -0.721051000  H
  atom      -0.824432000      0.282220000     -1.377720000  H
  atom      -4.066610000      4.258280000     -0.900064000  O
  atom      -3.224110000      3.876870000     -0.569443000  H
  atom      -3.737450000      5.116530000     -1.322720000  H
  atom      -5.628340000      3.730740000      1.385610000  O
  atom      -6.090650000      4.418470000      1.860350000  H
  atom      -5.158540000      4.200260000      0.615875000  H
  
  -----------------------------------------------------------------------
  Completed first pass over input file geometry.in .
  -----------------------------------------------------------------------
  
 
  Basic array size parameters: 
  | Number of species                 :        2
  | Number of atoms                   :       16
  | Max. basis fn. angular momentum   :        4
  | Max. atomic/ionic basis occupied n:        2
  | Max. number of basis fn. types    :        2
  | Max. radial fns per species/type  :        8
  | Max. logarithmic grid size        :     1301
  | Max. radial integration grid size :       73
  | Max. angular integration grid size:      302
  | Max. angular grid division number :        8
  | Radial grid for Hartree potential :     1301
  | Number of spin channels           :        1

------------------------------------------------------------
          Reading file control.in.
------------------------------------------------------------
  XC: Using RPBE gradient-corrected functionals.
  Spin treatment: No spin polarisation.
  Scalar relativistic treatment of kinetic energy: on-site free-atom approximation to ZORA.
  Charge =   0.000000E+00: Neutral system requested explicitly.
  Using non-empirical van der Waals correction (Hirshfeld partitioning):
  Occupation type: Gaussian broadening, width =   0.100000E-01 eV.
  Using pulay charge density mixing.
  Pulay mixing - number of memorized iterations:   10
  Charge density mixing - mixing parameter:     0.1000
  Convergence accuracy of self-consistent charge density: 0.5000E-04
  Convergence accuracy of sum of eigenvalues: 0.5000E-02
  Convergence accuracy of total energy: 0.5000E-05
  Maximum number of s.-c. iterations  :  3000
  Kohn-Sham eigenvalues and eigenfunctions calculated by lapack diagonalisation (D&C).
  Number of empty states per atom:        8
  Threshold for basis singularities: 0.0000E+00
  Partition function in integrals calculations: rho / r^2
 Using packed matrix format           0
  Convergence accuracy of forces: 0.5000E-03
  Cleaning forces before final output.
  Hirshfeld charge analysis will be performed.
 
  Reading configuration options for species H                   .
  | Found nuclear charge :   1.0000
  | Found cutoff potl. onset [A], width [A], scale factor :    4.00000    2.00000    1.00000
  | Found cutoff specification for free atom: Cutoff potential begins at    8.00000 A.
  | Found logarithmic grid data [bohr] : 0.1000E-03 0.1000E+03 0.1012E+01
  | Threshold for basis-dependent cutoff potential is   0.100000E-03
  | Found data for basic radial integration grid :    24 points, outermost radius =    7.000 A
  | Found multiplier for basic radial grid :   2
  | Found angular grid specification: user-specified.
  | Specified grid contains     4 separate shells.
  | Check grid settings after all constraints further below.
  | Found l_max for Hartree potential  :   4
  | Found free-atom valence shell :  1 s   1.000
  | No ionic wave fns used. Skipping ion_occ.
  | Found hydrogenic basis function :  2 s   2.100
  | Found hydrogenic basis function :  2 p   3.500
  | Found hydrogenic basis function :  1 s   0.850
  | Found hydrogenic basis function :  2 p   3.700
  | Found hydrogenic basis function :  2 s   1.200
  | Found hydrogenic basis function :  3 d   7.000
  Species H                   : Missing cutoff potential type.
  Defaulting to exp(1/x)/(1-x)^2 type cutoff potential.
  Species H : On-site basis accuracy parameter (for Gram-Schmidt orthonormalisation) not specified.
  Using default value basis_acc =  0.1000000E-03.
  Species H                   : Using default innermost maximum threshold i_radial=  2 for radial functions.
  Species H                   : Basic radial grid will be enhanced according to radial_multiplier =   2, to contain    49 grid points.
 
  Reading configuration options for species O                   .
  | Found nuclear charge :   8.0000
  | Found atomic mass :    15.9994000000000      amu
  | Found l_max for Hartree potential  :   4
  | Found cutoff potl. onset [A], width [A], scale factor :    4.00000    2.00000    1.00000
  | Found cutoff specification for free atom: Cutoff potential begins at    8.00000 A.
  | Threshold for basis-dependent cutoff potential is   0.100000E-03
  | Found logarithmic grid data [bohr] : 0.1000E-03 0.1000E+03 0.1012E+01
  | Found data for basic radial integration grid :    36 points, outermost radius =    7.000 A
  | Found multiplier for basic radial grid :   2
  | Found angular grid specification: user-specified.
  | Specified grid contains     4 separate shells.
  | Check grid settings after all constraints further below.
  | Found free-atom valence shell :  2 s   2.000
  | Found free-atom valence shell :  2 p   4.000
  | No ionic wave fns used. Skipping ion_occ.
  | No ionic wave fns used. Skipping ion_occ.
  | Found hydrogenic basis function :  2 p   1.800
  | Found hydrogenic basis function :  3 d   7.600
  | Found hydrogenic basis function :  3 s   6.400
  | Found hydrogenic basis function :  4 f  11.600
  | Found hydrogenic basis function :  3 p   6.200
  | Found hydrogenic basis function :  3 d   5.600
  | Found hydrogenic basis function :  5 g  17.600
  | Found hydrogenic basis function :  1 s   0.750
  Species O                   : Missing cutoff potential type.
  Defaulting to exp(1/x)/(1-x)^2 type cutoff potential.
  Species O : On-site basis accuracy parameter (for Gram-Schmidt orthonormalisation) not specified.
  Using default value basis_acc =  0.1000000E-03.
  Species O                   : Using default innermost maximum threshold i_radial=  2 for radial functions.
  Species O                   : Basic radial grid will be enhanced according to radial_multiplier =   2, to contain    73 grid points.
 
  Finished reading input file 'control.in'. Consistency checks are next.
 
  Target number of points in a grid batch is not set. Defaulting to  100
  Method for grid partitioning is not set. Defaulting to parallel hash+maxmin partitioning.
  Batch size limit is not set. Defaulting to    200
  By default, will store active basis functions for each batch.
  If in need of memory, prune_basis_once .false. can be used to disable this option.
  communication_type for Hartree potential was not specified.
  Defaulting to calc_hartree .
  Pulay mixer: Number of initial linear mixing iterations not set.
  Defaulting to    0 iterations.
  Work space size for distributed Hartree potential not set.
  Defaulting to   0.200000E+03 MB.
  Algorithm-dependent basis array size parameters:
  | n_max_pulay                         :       10
  Geometry relaxation not requested: no relaxation will be performed.
  Handling of forces: Unphysical translation and rotation will be removed from forces.
  No accuracy limit for integral partition fn. given. Defaulting to 0.1000E-14.
  No threshold value for u(r) in integrations given. Defaulting to 0.1000E-05.
  No accuracy for occupation numbers given. Defaulting to 0.1000E-07.
  No threshold value for occupation numbers given. Defaulting to 0.0000E+00.
  No accuracy for fermi level given. Defaulting to 0.1000E-19.
  Maximum # of iterations to find E_F not set. Defaulting to  200.
  Will not use alltoall communication since running on < 1024 CPUs.
  Partitioning for Hartree potential was not defined. Using partition_type for integrals.
  | Reporting present value of keyword multip_moments_threshold  :       0.10000000E-09
  | This value may affect high angular momentum components of the Hartree potential in periodic systems.
  No q(lm)/r^(l+1) cutoff set for long-range Hartree potential.
  | Using default value of  0.100000E-09 .
  | Verify using the multipole_threshold keyword.
  Defaulting to new monopole extrapolation.
  Density update method: Loop over occupied states selected for charge density update.
------------------------------------------------------------


------------------------------------------------------------
          Reading geometry description geometry.in.
------------------------------------------------------------
  Input structure read successfully.
  The structure contains       16 atoms,  and a total of         51.000 electrons.

  Input geometry:
  | No unit cell requested.
  | Atomic structure:
  |       Atom                x [A]            y [A]            z [A]
  |    1: Species O             -4.053030         0.065001        -1.525160
  |    2: Species H             -4.566710         0.974813        -1.912820
  |    3: Species H             -3.067820         0.330172        -1.477310
  |    4: Species H             -4.370360        -0.049164        -0.572274
  |    5: Species O             -4.581760        -0.256435         0.939478
  |    6: Species H             -4.349860         0.471090         1.504340
  |    7: Species H             -5.393870        -0.726611         1.228070
  |    8: Species O             -1.645860         0.870179        -1.502250
  |    9: Species H             -1.568890         1.501730        -0.721051
  |   10: Species H             -0.824432         0.282220        -1.377720
  |   11: Species O             -4.066610         4.258280        -0.900064
  |   12: Species H             -3.224110         3.876870        -0.569443
  |   13: Species H             -3.737450         5.116530        -1.322720
  |   14: Species O             -5.628340         3.730740         1.385610
  |   15: Species H             -6.090650         4.418470         1.860350
  |   16: Species H             -5.158540         4.200260         0.615875
  |

  | The smallest distance between any two atoms is         0.94981015 AA.
  |
  | The first atom of this pair is atom number                      5 .
  | The second atom of this pair is atom number                     6 .

  Structure-dependent array size parameters: 
  | Maximum number of distinct radial functions  :       18
  | Maximum number of basis functions            :      360
  | Number of Kohn-Sham states (occupied + empty):       90
------------------------------------------------------------

------------------------------------------------------------
          Preparing all fixed parts of the calculation.
------------------------------------------------------------
  Determining machine precision:
    2.225073858507201E-308
  Setting up grids for atomic and cluster calculations.

  Creating wave function, potential, and density for free atoms.

  Species: H

  List of occupied orbitals and eigenvalues:
    n    l              occ      energy [Ha]    energy [eV]
    1    0           1.0000        -0.241408        -6.5691


  Species: O

  List of occupied orbitals and eigenvalues:
    n    l              occ      energy [Ha]    energy [eV]
    1    0           2.0000       -18.944147      -515.4965
    2    0           2.0000        -0.883529       -24.0421
    2    1           4.0000        -0.330176        -8.9845

  Creating fixed part of basis set: Ionic, confined, hydrogenic.
 
  H                    hydrogenic:
 
  List of hydrogenic basis orbitals: 
    n    l      effective z      eigenvalue [eV]  inner max. [A]     outer max. [A]     outer radius [A]   
    2    0         2.100000       -14.9965           0.193241           1.317192           5.372934
    2    1         3.500000       -41.6672           0.602363           0.602363           4.056010
    1    0         0.850000        -9.8292           0.624864           0.624864           5.372934
    2    1         3.700000       -46.5653           0.573616           0.573616           3.909951
    2    0         1.200000        -4.5995           0.334977           2.228160           5.505921
    3    2         7.000000       -74.0753           0.680692           0.680692           3.769152
 
 
  O                    hydrogenic:
 
  List of hydrogenic basis orbitals: 
    n    l      effective z      eigenvalue [eV]  inner max. [A]     outer max. [A]     outer radius [A]   
    2    1         1.800000       -11.0118           1.178546           1.178546           5.432516
    3    2         7.600000       -87.3182           0.624117           0.624117           3.541422
    3    0         6.400000       -61.9209           0.061166           1.081887           4.306510
    4    3        11.600000      -114.4238           0.731621           0.731621           3.584982
    3    1         6.200000       -58.1113           0.255677           1.030255           4.306510
    3    2         5.600000       -47.4081           0.847222           0.847222           4.413102
    5    4        17.600000      -168.5799           0.749730           0.749730           3.372413
    1    0         0.750000        -7.6499           0.705275           0.705275           5.366508
 

  Adding cutoff potential to free-atom effective potential.
  Creating atomic-like basis functions for current effective potential.

  Species H                   :

  List of atomic basis orbitals and eigenvalues:
    n    l      energy [Ha]    energy [eV]    outer radius [A]
    1    0        -0.241374        -6.5681       5.372934


  Species O                   :

  List of atomic basis orbitals and eigenvalues:
    n    l      energy [Ha]    energy [eV]    outer radius [A]
    1    0       -18.944147      -515.4965       1.415745
    2    0        -0.883529       -24.0421       5.048305
    2    1        -0.330173        -8.9845       5.301302

  Assembling full basis from fixed parts.
  | Species H :   atomic orbital   1 s accepted.
  | Species H :    hydro orbital   2 s accepted.
  | Species H :    hydro orbital   1 s accepted.
  | Species H :    hydro orbital   2 s accepted.
  | Species H :    hydro orbital   2 p accepted.
  | Species H :    hydro orbital   2 p accepted.
  | Species H :    hydro orbital   3 d accepted.
  | Species O :   atomic orbital   1 s accepted.
  | Species O :    hydro orbital   3 s accepted.
  | Species O :   atomic orbital   2 s accepted.
  | Species O :    hydro orbital   1 s accepted.
  | Species O :    hydro orbital   3 p accepted.
  | Species O :   atomic orbital   2 p accepted.
  | Species O :    hydro orbital   2 p accepted.
  | Species O :    hydro orbital   3 d accepted.
  | Species O :    hydro orbital   3 d accepted.
  | Species O :    hydro orbital   4 f accepted.
  | Species O :    hydro orbital   5 g accepted.
 
  Basis size parameters after reduction:
  | Total number of radial functions:       18
  | Total number of basis functions :      360
 
  Testing on-site integration grid accuracy.
  |  Species  Function  <phi|h_atom|phi> (log., in eV)  <phi|h_atom|phi> (rad., in eV)
           1        1                 -6.5683835025                 -6.5684759159
           1        2                 13.3711789951                 13.3708738703
           1        3                 23.6590910787                 23.6532055418
           1        4                 16.2963827186                 16.1870710655 ***
           1        5                 28.7627214838                 28.7627215090
           1        6                 59.5965249172                 59.5965950857
           1        7                 60.2220506392                 60.2220503827
           2        8               -515.4964576505               -515.4964530710
           2        9                 15.3030791347                 15.3030722972
           2       10                -21.7296094581                -21.7296135470
           2       11                 14.2969371730                 14.2969701621
           2       12                 21.0679693190                 21.0679697493
           2       13                 -2.3833606469                 -2.3833613176
           2       14                 13.7067136422                 13.7066766629
           2       15                 45.8013116808                 45.8013116965
           2       16                 52.2309815402                 52.2309831494
           2       17                 85.4120732416                 85.4120732763
           2       18                142.1019167745                142.1019167817
 * Note: Onsite integrals marked "***" above are less accurate than
 * onsite_accuracy_threshold =    0.03000 eV. Usually, this is harmless.
 * When in doubt, tighten the "radial" and/or "radial_multiplier" flags to check.

  Preparing densities etc. for the partition functions (integrals / Hartree potential).

  Preparations completed.
  max(cpu_time)          :      0.169 s.
  Wall clock time (cpu1) :      0.597 s.
------------------------------------------------------------

------------------------------------------------------------
          Begin self-consistency loop: Initialization.

          Date     :  20150727, Time     :  122223.281
------------------------------------------------------------

  Initializing index lists of integration centers etc. from given atomic structure:
  | Number of centers in hartree potential         :        16
  | Number of centers in hartree multipole         :        16
  | Number of centers in electron density summation:        16
  | Number of centers in basis integrals           :        16
  | Number of centers in integrals                 :        16
  Partitioning the integration grid into batches with parallel hashing+maxmin method.
  | Number of batches:     2059
  | Maximal batch size:     193
  | Minimal batch size:      50
  | Average batch size:     101.168
  | Standard deviation of batch sizes:      32.605

  Integration load balanced across     8 MPI tasks.
  Work distribution over tasks is as follows:
  Task     0 has      26015 integration points.
  Task     1 has      26030 integration points.
  Task     2 has      25973 integration points.
  Task     3 has      25997 integration points.
  Task     4 has      26129 integration points.
  Task     5 has      26077 integration points.
  Task     6 has      26071 integration points.
  Task     7 has      26012 integration points.
  Initializing partition tables, free-atom densities, potentials, etc. across the integration grid (initialize_grid_storage).
  | Net number of integration points:   208304
  | of which are non-zero points    :   207726
  Obtaining max. number of non-zero basis functions in each batch (get_n_compute_maxes).
  | Maximal number of non-zero basis functions:      356 in task     0
  | Maximal number of non-zero basis functions:      356 in task     1
  | Maximal number of non-zero basis functions:      356 in task     2
  | Maximal number of non-zero basis functions:      356 in task     3
  | Maximal number of non-zero basis functions:      355 in task     4
  | Maximal number of non-zero basis functions:      356 in task     5
  | Maximal number of non-zero basis functions:      356 in task     6
  | Maximal number of non-zero basis functions:      356 in task     7
  Integrating Hamiltonian matrix: batch-based integration.
  Time summed over all CPUs for integration: real work        7.391 s, elapsed        7.605 s
  Integrating overlap matrix.
  Time summed over all CPUs for integration: real work        3.928 s, elapsed        4.020 s

  Updating Kohn-Sham eigenvalues, eigenvectors, occupation numbers, and Fermi level.
  Solving generalized eigenproblem
  Updating Kohn-Sham eigenvalues and eigenfunctions.
  Transforming overlap matrix and checking for singularities.
  Overlap matrix is nonsingular:
  | Lowest eigenvalue:  0.220891E-03
  Solving real generalised eigenvalue problem by standard LAPACK (fast)
  Determining occupation numbers for Kohn-Sham eigenstates.
  | Chemical potential (Fermi level) in eV                 : -.29227596E+01
  | Error in electron count due to remaining E_F inaccuracy: 0.00000000E+00
  | Maximum occupation number of highest empty state:  0.00E+00

  Writing Kohn-Sham eigenvalues.

  State    Occupation    Eigenvalue [Ha]    Eigenvalue [eV]
      1       2.00000         -19.065171         -518.78971
      2       2.00000         -19.059133         -518.62541
      3       2.00000         -19.044610         -518.23020
      4       2.00000         -19.042500         -518.17278
      5       2.00000         -19.042487         -518.17244
      6       2.00000          -1.127221          -30.67325
      7       2.00000          -1.104485          -30.05458
      8       2.00000          -1.092173          -29.71953
      9       2.00000          -1.084014          -29.49753
     10       2.00000          -1.081668          -29.43367
     11       2.00000          -0.651825          -17.73705
     12       2.00000          -0.647388          -17.61632
     13       2.00000          -0.623215          -16.95855
     14       2.00000          -0.610504          -16.61266
     15       2.00000          -0.604862          -16.45913
     16       2.00000          -0.601558          -16.36923
     17       2.00000          -0.524373          -14.26892
     18       2.00000          -0.515018          -14.01435
     19       2.00000          -0.504700          -13.73357
     20       2.00000          -0.497942          -13.54969
     21       2.00000          -0.483544          -13.15790
     22       2.00000          -0.446140          -12.14009
     23       2.00000          -0.435934          -11.86237
     24       2.00000          -0.433396          -11.79331
     25       2.00000          -0.429329          -11.68265
     26       1.00000          -0.107409           -2.92276
     27       0.00000          -0.073237           -1.99288
     28       0.00000          -0.067784           -1.84449
     29       0.00000          -0.063005           -1.71447
     30       0.00000          -0.040031           -1.08931
     31       0.00000          -0.022901           -0.62317
     32       0.00000           0.001635            0.04450
     33       0.00000           0.024898            0.67750
     34       0.00000           0.033887            0.92211
     35       0.00000           0.037508            1.02064
     36       0.00000           0.054089            1.47184
     37       0.00000           0.061339            1.66912
     38       0.00000           0.072595            1.97540
     39       0.00000           0.085871            2.33666
     40       0.00000           0.091731            2.49613
     41       0.00000           0.098659            2.68465
     42       0.00000           0.103336            2.81191
     43       0.00000           0.103573            2.81836
     44       0.00000           0.116806            3.17846
     45       0.00000           0.122908            3.34450
     46       0.00000           0.128213            3.48886
     47       0.00000           0.136726            3.72051
     48       0.00000           0.145484            3.95882
     49       0.00000           0.152775            4.15723
     50       0.00000           0.160443            4.36587
     51       0.00000           0.171001            4.65319
     52       0.00000           0.177487            4.82966
     53       0.00000           0.205882            5.60234
     54       0.00000           0.208933            5.68535
     55       0.00000           0.224313            6.10386
     56       0.00000           0.228724            6.22389
     57       0.00000           0.248063            6.75013
     58       0.00000           0.270841            7.36996
     59       0.00000           0.285132            7.75885
     60       0.00000           0.297078            8.08391
     61       0.00000           0.303934            8.27046
     62       0.00000           0.318156            8.65746
     63       0.00000           0.349765            9.51759
     64       0.00000           0.356686            9.70592
     65       0.00000           0.363104            9.88055
     66       0.00000           0.366743            9.97958
     67       0.00000           0.372011           10.12294
     68       0.00000           0.380169           10.34492
     69       0.00000           0.385289           10.48424
     70       0.00000           0.399371           10.86743
     71       0.00000           0.421017           11.45646
     72       0.00000           0.432573           11.77091
     73       0.00000           0.441216           12.00610
     74       0.00000           0.446995           12.16334
     75       0.00000           0.458596           12.47903
     76       0.00000           0.486909           13.24947
     77       0.00000           0.496969           13.52321
     78       0.00000           0.507988           13.82305
     79       0.00000           0.518932           14.12085
     80       0.00000           0.533365           14.51360
     81       0.00000           0.557830           15.17932
     82       0.00000           0.576611           15.69039
     83       0.00000           0.585456           15.93108
     84       0.00000           0.617135           16.79310
     85       0.00000           0.637852           17.35685
     86       0.00000           0.661495           18.00021
     87       0.00000           0.688293           18.72940
     88       0.00000           0.722355           19.65628
     89       0.00000           0.752314           20.47150
     90       0.00000           0.753801           20.51196

  Highest occupied state (VBM) at     -2.92275962 eV
  | Occupation number:      1.00000000

  Lowest unoccupied state (CBM) at    -2.92275962 eV
  | Occupation number:      1.00000000

  Overall HOMO-LUMO gap:      0.00000000 eV.
  Calculating total energy contributions from superposition of free atom densities.

  Total energy components:
  | Sum of eigenvalues            :        -217.61379129 Ha       -5921.57254720 eV
  | XC energy correction          :         -45.92567347 Ha       -1249.70115932 eV
  | XC potential correction       :          58.69232398 Ha        1597.09939498 eV
  | Free-atom electrostatic energy:        -178.69093704 Ha       -4862.42779436 eV
  | Hartree energy correction     :           0.00000000 Ha           0.00000000 eV
  | van der Waals energy corr.    :           0.00000000 Ha           0.00000000 eV
  | Entropy correction            :          -0.00010367 Ha          -0.00282095 eV
  | ---------------------------
  | Total energy                  :        -383.53807782 Ha      -10436.60210590 eV
  | Total energy, T -> 0          :        -383.53818149 Ha      -10436.60492685 eV  <-- do not rely on this value for anything but (periodic) metals
  | Electronic free energy        :        -383.53828515 Ha      -10436.60774779 eV

  Derived energy quantities:
  | Kinetic energy                :         379.83499568 Ha       10335.83611398 eV
  | Electrostatic energy          :        -717.44740002 Ha      -19522.73706055 eV
  | Energy correction for multipole
  | error in Hartree potential    :           0.00000000 Ha           0.00000000 eV
  | Sum of eigenvalues per atom                           :        -370.09828420 eV
  | Total energy (T->0) per atom                          :        -652.28780793 eV  <-- do not rely on this value for anything but (periodic) metals
  | Electronic free energy per atom                       :        -652.28798424 eV
  Initialize hartree_potential_storage
  Max. number of atoms included in rho_multipole:           16

  End scf initialization - timings             :  max(cpu_time)    wall_clock(cpu1)
  | Time for scf. initialization               :        2.065 s           2.064 s
  | Boundary condition initialization          :        0.000 s           0.000 s
  | Integration                                :        1.457 s           1.457 s
  | Solution of K.-S. eqns.                    :        0.212 s           0.212 s
  | Grid partitioning                          :        0.158 s           0.158 s
  | Preloading free-atom quantities on grid    :        0.014 s           0.013 s
  | Free-atom superposition energy             :        0.073 s           0.074 s
  | Total energy evaluation                    :        0.001 s           0.000 s
------------------------------------------------------------

------------------------------------------------------------
          Begin self-consistency iteration #    1

  Date     :  20150727, Time     :  122225.345
------------------------------------------------------------
  Evaluating new KS density.
  Integration grid: deviation in total charge (<rho> - N_e) =  -7.105427E-15
  Pulay mixing of updated and previous charge densities.

  Evaluating partitioned Hartree potential by multipole expansion.
  | Analytical far-field extrapolation by fixed multipoles:
  | Hartree multipole sum: apparent total charge =  -0.136326E-05
  Summing up the Hartree potential.
  Time summed over all CPUs for potential: real work        2.893 s, elapsed        2.913 s
  | RMS charge density error from multipole expansion :   0.164946E-02

  Integrating Hamiltonian matrix: batch-based integration.
  Time summed over all CPUs for integration: real work        7.386 s, elapsed        7.618 s

  Updating Kohn-Sham eigenvalues, eigenvectors, occupation numbers, and Fermi level.
  Solving generalized eigenproblem
  Updating Kohn-Sham eigenvalues and eigenfunctions.
  Solving real generalised eigenvalue problem by standard LAPACK (fast)
  Determining occupation numbers for Kohn-Sham eigenstates.
  | Chemical potential (Fermi level) in eV                 : -.27074503E+01
  | Error in electron count due to remaining E_F inaccuracy: -.56137139E-08
  | Maximum occupation number of highest empty state:  0.00E+00

  Writing Kohn-Sham eigenvalues.

  State    Occupation    Eigenvalue [Ha]    Eigenvalue [eV]
      1       2.00000         -19.008337         -517.24316
      2       2.00000         -18.989170         -516.72161
      3       2.00000         -18.975745         -516.35629
      4       2.00000         -18.967353         -516.12793
      5       2.00000         -18.960242         -515.93444
      6       2.00000          -1.098863          -29.90158
      7       2.00000          -1.071886          -29.16750
      8       2.00000          -1.051505          -28.61290
      9       2.00000          -1.049755          -28.56529
     10       2.00000          -1.042758          -28.37488
     11       2.00000          -0.624823          -17.00231
     12       2.00000          -0.621242          -16.90485
     13       2.00000          -0.586578          -15.96160
     14       2.00000          -0.585571          -15.93420
     15       2.00000          -0.575402          -15.65749
     16       2.00000          -0.571175          -15.54247
     17       2.00000          -0.494430          -13.45411
     18       2.00000          -0.476338          -12.96181
     19       2.00000          -0.472422          -12.85527
     20       2.00000          -0.455510          -12.39506
     21       2.00000          -0.453308          -12.33514
     22       2.00000          -0.411660          -11.20183
     23       2.00000          -0.402405          -10.94999
     24       2.00000          -0.393099          -10.69676
     25       2.00000          -0.384261          -10.45626
     26       1.00000          -0.099497           -2.70745
     27       0.00000          -0.064931           -1.76687
     28       0.00000          -0.060218           -1.63863
     29       0.00000          -0.055861           -1.52005
     30       0.00000          -0.031198           -0.84895
     31       0.00000          -0.016050           -0.43674
     32       0.00000           0.008193            0.22295
     33       0.00000           0.034597            0.94143
     34       0.00000           0.040682            1.10701
     35       0.00000           0.046880            1.27566
     36       0.00000           0.060869            1.65634
     37       0.00000           0.067238            1.82964
     38       0.00000           0.079144            2.15361
     39       0.00000           0.096237            2.61873
     40       0.00000           0.098876            2.69054
     41       0.00000           0.106074            2.88642
     42       0.00000           0.110169            2.99785
     43       0.00000           0.113105            3.07773
     44       0.00000           0.126416            3.43995
     45       0.00000           0.132550            3.60687
     46       0.00000           0.136844            3.72371
     47       0.00000           0.144114            3.92155
     48       0.00000           0.158721            4.31901
     49       0.00000           0.164452            4.47496
     50       0.00000           0.168963            4.59772
     51       0.00000           0.177935            4.84186
     52       0.00000           0.186128            5.06480
     53       0.00000           0.214506            5.83701
     54       0.00000           0.216768            5.89855
     55       0.00000           0.231968            6.31216
     56       0.00000           0.237402            6.46003
     57       0.00000           0.255475            6.95182
     58       0.00000           0.278516            7.57880
     59       0.00000           0.291870            7.94218
     60       0.00000           0.302018            8.21833
     61       0.00000           0.311277            8.47029
     62       0.00000           0.325970            8.87009
     63       0.00000           0.358383            9.75209
     64       0.00000           0.364420            9.91637
     65       0.00000           0.370435           10.08006
     66       0.00000           0.376919           10.25648
     67       0.00000           0.381403           10.37851
     68       0.00000           0.387558           10.54598
     69       0.00000           0.392097           10.66950
     70       0.00000           0.407499           11.08861
     71       0.00000           0.429343           11.68302
     72       0.00000           0.439525           11.96009
     73       0.00000           0.450454           12.25747
     74       0.00000           0.455416           12.39250
     75       0.00000           0.466626           12.69755
     76       0.00000           0.498269           13.55859
     77       0.00000           0.506762           13.78968
     78       0.00000           0.516727           14.06084
     79       0.00000           0.528489           14.38090
     80       0.00000           0.543902           14.80031
     81       0.00000           0.568082           15.45829
     82       0.00000           0.587341           15.98236
     83       0.00000           0.597519           16.25932
     84       0.00000           0.626696           17.05328
     85       0.00000           0.648719           17.65254
     86       0.00000           0.672759           18.30670
     87       0.00000           0.698779           19.01475
     88       0.00000           0.731419           19.90292
     89       0.00000           0.763275           20.76976
     90       0.00000           0.766063           20.84565

  Highest occupied state (VBM) at    -10.45626481 eV
  | Occupation number:      2.00000000

  Lowest unoccupied state (CBM) at    -2.70745029 eV
  | Occupation number:      0.99999999

  Overall HOMO-LUMO gap:      7.74881451 eV.

  Total energy components:
  | Sum of eigenvalues            :        -215.54717083 Ha       -5865.33694325 eV
  | XC energy correction          :         -46.14765859 Ha       -1255.74168175 eV
  | XC potential correction       :          58.98251013 Ha        1604.99576191 eV
  | Free-atom electrostatic energy:        -178.69093704 Ha       -4862.42779436 eV
  | Hartree energy correction     :          -2.01257743 Ha         -54.76501818 eV
  | van der Waals energy corr.    :           0.00000000 Ha           0.00000000 eV
  | Entropy correction            :          -0.00010367 Ha          -0.00282095 eV
  | ---------------------------
  | Total energy                  :        -383.41583375 Ha      -10433.27567564 eV
  | Total energy, T -> 0          :        -383.41593742 Ha      -10433.27849658 eV  <-- do not rely on this value for anything but (periodic) metals
  | Electronic free energy        :        -383.41604109 Ha      -10433.28131753 eV

  Derived energy quantities:
  | Kinetic energy                :         381.18069939 Ha       10372.45457509 eV
  | Electrostatic energy          :        -718.44887455 Ha      -19549.98856897 eV
  | Energy correction for multipole
  | error in Hartree potential    :           0.00025240 Ha           0.00686823 eV
  | Sum of eigenvalues per atom                           :        -366.58355895 eV
  | Total energy (T->0) per atom                          :        -652.07990604 eV  <-- do not rely on this value for anything but (periodic) metals
  | Electronic free energy per atom                       :        -652.08008235 eV

  Self-consistency convergence accuracy:
  | Change of charge density      : 0.6348E+00
  | Change of sum of eigenvalues  : 0.5624E+02 eV
  | Change of total energy        : 0.3326E+01 eV

  End self-consistency iteration #     1       :  max(cpu_time)    wall_clock(cpu1)
  | Time for this iteration                    :        2.035 s           2.035 s
  | Charge density update                      :        0.650 s           0.650 s
  | Density mixing                             :        0.003 s           0.004 s
  | Hartree multipole update                   :        0.005 s           0.005 s
  | Hartree multipole summation                :        0.364 s           0.365 s
  | Integration                                :        0.955 s           0.954 s
  | Solution of K.-S. eqns.                    :        0.056 s           0.056 s
  | Total energy evaluation                    :        0.000 s           0.000 s
------------------------------------------------------------

------------------------------------------------------------
          Begin self-consistency iteration #    2

  Date     :  20150727, Time     :  122227.381
------------------------------------------------------------
  Evaluating new KS density.
  Integration grid: deviation in total charge (<rho> - N_e) =  -5.613707E-09
  Pulay mixing of updated and previous charge densities.

  Evaluating partitioned Hartree potential by multipole expansion.
  | Analytical far-field extrapolation by fixed multipoles:
  | Hartree multipole sum: apparent total charge =  -0.387754E-05
  Summing up the Hartree potential.
  Time summed over all CPUs for potential: real work        2.893 s, elapsed        2.912 s
  | RMS charge density error from multipole expansion :   0.666385E-02

  Integrating Hamiltonian matrix: batch-based integration.
  Time summed over all CPUs for integration: real work        7.361 s, elapsed        7.575 s

  Updating Kohn-Sham eigenvalues, eigenvectors, occupation numbers, and Fermi level.
  Solving generalized eigenproblem
  Updating Kohn-Sham eigenvalues and eigenfunctions.
  Solving real generalised eigenvalue problem by standard LAPACK (fast)
  Determining occupation numbers for Kohn-Sham eigenstates.
  | Chemical potential (Fermi level) in eV                 : -.22006052E+01
  | Error in electron count due to remaining E_F inaccuracy: 0.00000000E+00
  | Maximum occupation number of highest empty state:  0.00E+00

  Highest occupied state (VBM) at     -2.20060520 eV
  | Occupation number:      1.00000000

  Lowest unoccupied state (CBM) at    -2.20060520 eV
  | Occupation number:      1.00000000

  Overall HOMO-LUMO gap:      0.00000000 eV.

  Total energy components:
  | Sum of eigenvalues            :        -210.63939017 Ha       -5731.78943688 eV
  | XC energy correction          :         -46.70136230 Ha       -1270.80872617 eV
  | XC potential correction       :          59.70491360 Ha        1624.65336061 eV
  | Free-atom electrostatic energy:        -178.69093704 Ha       -4862.42779436 eV
  | Hartree energy correction     :          -6.95111042 Ha        -189.14933840 eV
  | van der Waals energy corr.    :           0.00000000 Ha           0.00000000 eV
  | Entropy correction            :          -0.00010367 Ha          -0.00282095 eV
  | ---------------------------
  | Total energy                  :        -383.27788633 Ha      -10429.52193521 eV
  | Total energy, T -> 0          :        -383.27799000 Ha      -10429.52475615 eV  <-- do not rely on this value for anything but (periodic) metals
  | Electronic free energy        :        -383.27809366 Ha      -10429.52757710 eV

  Derived energy quantities:
  | Kinetic energy                :         383.95026952 Ha       10447.81841292 eV
  | Electrostatic energy          :        -720.52679355 Ha      -19606.53162195 eV
  | Energy correction for multipole
  | error in Hartree potential    :           0.00013574 Ha           0.00369360 eV
  | Sum of eigenvalues per atom                           :        -358.23683981 eV
  | Total energy (T->0) per atom                          :        -651.84529726 eV  <-- do not rely on this value for anything but (periodic) metals
  | Electronic free energy per atom                       :        -651.84547357 eV

  Self-consistency convergence accuracy:
  | Change of charge density      : 0.4818E+00
  | Change of sum of eigenvalues  : 0.1335E+03 eV
  | Change of total energy        : 0.3754E+01 eV

  End self-consistency iteration #     2       :  max(cpu_time)    wall_clock(cpu1)
  | Time for this iteration                    :        2.026 s           2.025 s
  | Charge density update                      :        0.644 s           0.644 s
  | Density mixing                             :        0.006 s           0.006 s
  | Hartree multipole update                   :        0.005 s           0.005 s
  | Hartree multipole summation                :        0.365 s           0.364 s
  | Integration                                :        0.948 s           0.948 s
  | Solution of K.-S. eqns.                    :        0.057 s           0.057 s
  | Total energy evaluation                    :        0.001 s           0.000 s
------------------------------------------------------------

------------------------------------------------------------
          Begin self-consistency iteration #    3

  Date     :  20150727, Time     :  122229.406
------------------------------------------------------------
  Evaluating new KS density.
  Integration grid: deviation in total charge (<rho> - N_e) =   3.552714E-14
  Pulay mixing of updated and previous charge densities.

  Evaluating partitioned Hartree potential by multipole expansion.
  | Analytical far-field extrapolation by fixed multipoles:
  | Hartree multipole sum: apparent total charge =  -0.388967E-05
  Summing up the Hartree potential.
  Time summed over all CPUs for potential: real work        2.892 s, elapsed        2.912 s
  | RMS charge density error from multipole expansion :   0.138535E-01

  Integrating Hamiltonian matrix: batch-based integration.
  Time summed over all CPUs for integration: real work        7.360 s, elapsed        7.581 s

  Updating Kohn-Sham eigenvalues, eigenvectors, occupation numbers, and Fermi level.
  Solving generalized eigenproblem
  Updating Kohn-Sham eigenvalues and eigenfunctions.
  Solving real generalised eigenvalue problem by standard LAPACK (fast)
  Determining occupation numbers for Kohn-Sham eigenstates.
  | Chemical potential (Fermi level) in eV                 : -.21996726E+01
  | Error in electron count due to remaining E_F inaccuracy: 0.21316282E-12
  | Maximum occupation number of highest empty state:  0.00E+00

  Highest occupied state (VBM) at     -2.19967259 eV
  | Occupation number:      1.00000000

  Lowest unoccupied state (CBM) at    -1.28352206 eV
  | Occupation number:      0.00000000

  Overall HOMO-LUMO gap:      0.91615054 eV.

  Total energy components:
  | Sum of eigenvalues            :        -210.99880346 Ha       -5741.56957000 eV
  | XC energy correction          :         -46.68669182 Ha       -1270.40952215 eV
  | XC potential correction       :          59.67744925 Ha        1623.90601741 eV
  | Free-atom electrostatic energy:        -178.69093704 Ha       -4862.42779436 eV
  | Hartree energy correction     :          -6.57693493 Ha        -178.96750517 eV
  | van der Waals energy corr.    :           0.00000000 Ha           0.00000000 eV
  | Entropy correction            :          -0.00010367 Ha          -0.00282095 eV
  | ---------------------------
  | Total energy                  :        -383.27591800 Ha      -10429.46837426 eV
  | Total energy, T -> 0          :        -383.27602167 Ha      -10429.47119521 eV  <-- do not rely on this value for anything but (periodic) metals
  | Electronic free energy        :        -383.27612533 Ha      -10429.47401616 eV

  Derived energy quantities:
  | Kinetic energy                :         382.06010391 Ha       10396.38438966 eV
  | Electrostatic energy          :        -718.64933009 Ha      -19555.44324177 eV
  | Energy correction for multipole
  | error in Hartree potential    :          -0.00427536 Ha          -0.11633846 eV
  | Sum of eigenvalues per atom                           :        -358.84809812 eV
  | Total energy (T->0) per atom                          :        -651.84194970 eV  <-- do not rely on this value for anything but (periodic) metals
  | Electronic free energy per atom                       :        -651.84212601 eV

  Self-consistency convergence accuracy:
  | Change of charge density      : 0.2375E+00
  | Change of sum of eigenvalues  : -.9780E+01 eV
  | Change of total energy        : 0.5356E-01 eV

  End self-consistency iteration #     3       :  max(cpu_time)    wall_clock(cpu1)
  | Time for this iteration                    :        2.023 s           2.024 s
  | Charge density update                      :        0.639 s           0.640 s
  | Density mixing                             :        0.007 s           0.007 s
  | Hartree multipole update                   :        0.004 s           0.005 s
  | Hartree multipole summation                :        0.364 s           0.365 s
  | Integration                                :        0.950 s           0.949 s
  | Solution of K.-S. eqns.                    :        0.057 s           0.057 s
  | Total energy evaluation                    :        0.000 s           0.001 s
------------------------------------------------------------

------------------------------------------------------------
          Begin self-consistency iteration #    4

  Date     :  20150727, Time     :  122231.430
------------------------------------------------------------
  Evaluating new KS density.
  Integration grid: deviation in total charge (<rho> - N_e) =   1.989520E-13
  Pulay mixing of updated and previous charge densities.

  Evaluating partitioned Hartree potential by multipole expansion.
  | Analytical far-field extrapolation by fixed multipoles:
  | Hartree multipole sum: apparent total charge =  -0.474385E-05
  Summing up the Hartree potential.
  Time summed over all CPUs for potential: real work        2.891 s, elapsed        2.912 s
  | RMS charge density error from multipole expansion :   0.174859E-01

  Integrating Hamiltonian matrix: batch-based integration.
  Time summed over all CPUs for integration: real work        7.356 s, elapsed        7.570 s

  Updating Kohn-Sham eigenvalues, eigenvectors, occupation numbers, and Fermi level.
  Solving generalized eigenproblem
  Updating Kohn-Sham eigenvalues and eigenfunctions.
  Solving real generalised eigenvalue problem by standard LAPACK (fast)
  Determining occupation numbers for Kohn-Sham eigenstates.
  | Chemical potential (Fermi level) in eV                 : -.20607613E+01
  | Error in electron count due to remaining E_F inaccuracy: 0.17053026E-12
  | Maximum occupation number of highest empty state:  0.00E+00

  Highest occupied state (VBM) at     -2.06076131 eV
  | Occupation number:      1.00000000

  Lowest unoccupied state (CBM) at    -1.16265118 eV
  | Occupation number:      0.00000000

  Overall HOMO-LUMO gap:      0.89811013 eV.

  Total energy components:
  | Sum of eigenvalues            :        -209.71786062 Ha       -5706.71334178 eV
  | XC energy correction          :         -46.85539100 Ha       -1275.00006048 eV
  | XC potential correction       :          59.89524626 Ha        1629.83257568 eV
  | Free-atom electrostatic energy:        -178.69093704 Ha       -4862.42779436 eV
  | Hartree energy correction     :          -7.90062637 Ha        -214.98698205 eV
  | van der Waals energy corr.    :           0.00000000 Ha           0.00000000 eV
  | Entropy correction            :          -0.00010367 Ha          -0.00282095 eV
  | ---------------------------
  | Total energy                  :        -383.26956877 Ha      -10429.29560298 eV
  | Total energy, T -> 0          :        -383.26967244 Ha      -10429.29842393 eV  <-- do not rely on this value for anything but (periodic) metals
  | Electronic free energy        :        -383.26977611 Ha      -10429.30124488 eV

  Derived energy quantities:
  | Kinetic energy                :         382.23911866 Ha       10401.25562872 eV
  | Electrostatic energy          :        -718.65329643 Ha      -19555.55117123 eV
  | Energy correction for multipole
  | error in Hartree potential    :          -0.00572689 Ha          -0.15583664 eV
  | Sum of eigenvalues per atom                           :        -356.66958386 eV
  | Total energy (T->0) per atom                          :        -651.83115150 eV  <-- do not rely on this value for anything but (periodic) metals
  | Electronic free energy per atom                       :        -651.83132780 eV

  Self-consistency convergence accuracy:
  | Change of charge density      : 0.1113E+00
  | Change of sum of eigenvalues  : 0.3486E+02 eV
  | Change of total energy        : 0.1728E+00 eV

  End self-consistency iteration #     4       :  max(cpu_time)    wall_clock(cpu1)
  | Time for this iteration                    :        2.023 s           2.023 s
  | Charge density update                      :        0.639 s           0.639 s
  | Density mixing                             :        0.009 s           0.009 s
  | Hartree multipole update                   :        0.005 s           0.005 s
  | Hartree multipole summation                :        0.365 s           0.365 s
  | Integration                                :        0.948 s           0.948 s
  | Solution of K.-S. eqns.                    :        0.056 s           0.056 s
  | Total energy evaluation                    :        0.000 s           0.000 s
------------------------------------------------------------

------------------------------------------------------------
          Begin self-consistency iteration #    5

  Date     :  20150727, Time     :  122233.453
------------------------------------------------------------
  Evaluating new KS density.
  Integration grid: deviation in total charge (<rho> - N_e) =   1.705303E-13
  Pulay mixing of updated and previous charge densities.

  Evaluating partitioned Hartree potential by multipole expansion.
  | Analytical far-field extrapolation by fixed multipoles:
  | Hartree multipole sum: apparent total charge =  -0.470741E-05
  Summing up the Hartree potential.
  Time summed over all CPUs for potential: real work        2.891 s, elapsed        2.911 s
  | RMS charge density error from multipole expansion :   0.176446E-01

  Integrating Hamiltonian matrix: batch-based integration.
  Time summed over all CPUs for integration: real work        7.352 s, elapsed        7.570 s

  Updating Kohn-Sham eigenvalues, eigenvectors, occupation numbers, and Fermi level.
  Solving generalized eigenproblem
  Updating Kohn-Sham eigenvalues and eigenfunctions.
  Solving real generalised eigenvalue problem by standard LAPACK (fast)
  Determining occupation numbers for Kohn-Sham eigenstates.
  | Chemical potential (Fermi level) in eV                 : -.20527168E+01
  | Error in electron count due to remaining E_F inaccuracy: -.92909858E-09
  | Maximum occupation number of highest empty state:  0.00E+00

  Highest occupied state (VBM) at     -6.18823272 eV
  | Occupation number:      2.00000000

  Lowest unoccupied state (CBM) at    -2.05271680 eV
  | Occupation number:      1.00000000

  Overall HOMO-LUMO gap:      4.13551592 eV.

  Total energy components:
  | Sum of eigenvalues            :        -209.73080114 Ha       -5707.06547137 eV
  | XC energy correction          :         -46.85303765 Ha       -1274.93602251 eV
  | XC potential correction       :          59.89181292 Ha        1629.73914969 eV
  | Free-atom electrostatic energy:        -178.69093704 Ha       -4862.42779436 eV
  | Hartree energy correction     :          -7.88631380 Ha        -214.59751703 eV
  | van der Waals energy corr.    :           0.00000000 Ha           0.00000000 eV
  | Entropy correction            :          -0.00010367 Ha          -0.00282095 eV
  | ---------------------------
  | Total energy                  :        -383.26927671 Ha      -10429.28765557 eV
  | Total energy, T -> 0          :        -383.26938038 Ha      -10429.29047652 eV  <-- do not rely on this value for anything but (periodic) metals
  | Electronic free energy        :        -383.26948405 Ha      -10429.29329747 eV

  Derived energy quantities:
  | Kinetic energy                :         382.24801878 Ha       10401.49781344 eV
  | Electrostatic energy          :        -718.66425784 Ha      -19555.84944650 eV
  | Energy correction for multipole
  | error in Hartree potential    :          -0.00585745 Ha          -0.15938922 eV
  | Sum of eigenvalues per atom                           :        -356.69159196 eV
  | Total energy (T->0) per atom                          :        -651.83065478 eV  <-- do not rely on this value for anything but (periodic) metals
  | Electronic free energy per atom                       :        -651.83083109 eV

  Self-consistency convergence accuracy:
  | Change of charge density      : 0.2023E-01
  | Change of sum of eigenvalues  : -.3521E+00 eV
  | Change of total energy        : 0.7947E-02 eV

  End self-consistency iteration #     5       :  max(cpu_time)    wall_clock(cpu1)
  | Time for this iteration                    :        2.025 s           2.025 s
  | Charge density update                      :        0.640 s           0.639 s
  | Density mixing                             :        0.010 s           0.010 s
  | Hartree multipole update                   :        0.005 s           0.005 s
  | Hartree multipole summation                :        0.364 s           0.364 s
  | Integration                                :        0.948 s           0.948 s
  | Solution of K.-S. eqns.                    :        0.056 s           0.057 s
  | Total energy evaluation                    :        0.001 s           0.000 s
------------------------------------------------------------

------------------------------------------------------------
          Begin self-consistency iteration #    6

  Date     :  20150727, Time     :  122235.478
------------------------------------------------------------
  Evaluating new KS density.
  Integration grid: deviation in total charge (<rho> - N_e) =  -9.291199E-10
  Pulay mixing of updated and previous charge densities.

  Evaluating partitioned Hartree potential by multipole expansion.
  | Analytical far-field extrapolation by fixed multipoles:
  | Hartree multipole sum: apparent total charge =  -0.471186E-05
  Summing up the Hartree potential.
  Time summed over all CPUs for potential: real work        2.891 s, elapsed        2.911 s
  | RMS charge density error from multipole expansion :   0.178595E-01

  Integrating Hamiltonian matrix: batch-based integration.
  Time summed over all CPUs for integration: real work        7.349 s, elapsed        7.578 s

  Updating Kohn-Sham eigenvalues, eigenvectors, occupation numbers, and Fermi level.
  Solving generalized eigenproblem
  Updating Kohn-Sham eigenvalues and eigenfunctions.
  Solving real generalised eigenvalue problem by standard LAPACK (fast)
  Determining occupation numbers for Kohn-Sham eigenstates.
  | Chemical potential (Fermi level) in eV                 : -.20542002E+01
  | Error in electron count due to remaining E_F inaccuracy: 0.22013324E-09
  | Maximum occupation number of highest empty state:  0.00E+00

  Highest occupied state (VBM) at     -2.05420020 eV
  | Occupation number:      1.00000000

  Lowest unoccupied state (CBM) at    -1.15984700 eV
  | Occupation number:      0.00000000

  Overall HOMO-LUMO gap:      0.89435320 eV.

  Total energy components:
  | Sum of eigenvalues            :        -209.74743176 Ha       -5707.51801349 eV
  | XC energy correction          :         -46.85215827 Ha       -1274.91209346 eV
  | XC potential correction       :          59.89031607 Ha        1629.69841835 eV
  | Free-atom electrostatic energy:        -178.69093704 Ha       -4862.42779436 eV
  | Hartree energy correction     :          -7.86906641 Ha        -214.12819169 eV
  | van der Waals energy corr.    :           0.00000000 Ha           0.00000000 eV
  | Entropy correction            :          -0.00010367 Ha          -0.00282095 eV
  | ---------------------------
  | Total energy                  :        -383.26927741 Ha      -10429.28767465 eV
  | Total energy, T -> 0          :        -383.26938108 Ha      -10429.29049559 eV  <-- do not rely on this value for anything but (periodic) metals
  | Electronic free energy        :        -383.26948475 Ha      -10429.29331654 eV

  Derived energy quantities:
  | Kinetic energy                :         382.23442164 Ha       10401.12781637 eV
  | Electrostatic energy          :        -718.65154078 Ha      -19555.50339755 eV
  | Energy correction for multipole
  | error in Hartree potential    :          -0.00601877 Ha          -0.16377904 eV
  | Sum of eigenvalues per atom                           :        -356.71987584 eV
  | Total energy (T->0) per atom                          :        -651.83065597 eV  <-- do not rely on this value for anything but (periodic) metals
  | Electronic free energy per atom                       :        -651.83083228 eV

  Self-consistency convergence accuracy:
  | Change of charge density      : 0.1021E-01
  | Change of sum of eigenvalues  : -.4525E+00 eV
  | Change of total energy        : -.1907E-04 eV

  End self-consistency iteration #     6       :  max(cpu_time)    wall_clock(cpu1)
  | Time for this iteration                    :        2.027 s           2.027 s
  | Charge density update                      :        0.640 s           0.639 s
  | Density mixing                             :        0.011 s           0.012 s
  | Hartree multipole update                   :        0.005 s           0.005 s
  | Hartree multipole summation                :        0.365 s           0.364 s
  | Integration                                :        0.949 s           0.948 s
  | Solution of K.-S. eqns.                    :        0.057 s           0.057 s
  | Total energy evaluation                    :        0.000 s           0.001 s
------------------------------------------------------------

------------------------------------------------------------
          Begin self-consistency iteration #    7

  Date     :  20150727, Time     :  122237.505
------------------------------------------------------------
  Evaluating new KS density.
  Integration grid: deviation in total charge (<rho> - N_e) =   2.201546E-10
  Pulay mixing of updated and previous charge densities.

  Evaluating partitioned Hartree potential by multipole expansion.
  | Analytical far-field extrapolation by fixed multipoles:
  | Hartree multipole sum: apparent total charge =  -0.474555E-05
  Summing up the Hartree potential.
  Time summed over all CPUs for potential: real work        2.892 s, elapsed        2.912 s
  | RMS charge density error from multipole expansion :   0.179241E-01

  Integrating Hamiltonian matrix: batch-based integration.
  Time summed over all CPUs for integration: real work        7.357 s, elapsed        7.573 s

  Updating Kohn-Sham eigenvalues, eigenvectors, occupation numbers, and Fermi level.
  Solving generalized eigenproblem
  Updating Kohn-Sham eigenvalues and eigenfunctions.
  Solving real generalised eigenvalue problem by standard LAPACK (fast)
  Determining occupation numbers for Kohn-Sham eigenstates.
  | Chemical potential (Fermi level) in eV                 : -.20612753E+01
  | Error in electron count due to remaining E_F inaccuracy: 0.00000000E+00
  | Maximum occupation number of highest empty state:  0.00E+00

  Highest occupied state (VBM) at     -2.06127529 eV
  | Occupation number:      1.00000000

  Lowest unoccupied state (CBM) at    -2.06127529 eV
  | Occupation number:      1.00000000

  Overall HOMO-LUMO gap:      0.00000000 eV.

  Total energy components:
  | Sum of eigenvalues            :        -209.77199602 Ha       -5708.18644090 eV
  | XC energy correction          :         -46.85016119 Ha       -1274.85775015 eV
  | XC potential correction       :          59.88750144 Ha        1629.62182830 eV
  | Free-atom electrostatic energy:        -178.69093704 Ha       -4862.42779436 eV
  | Hartree energy correction     :          -7.84366974 Ha        -213.43711328 eV
  | van der Waals energy corr.    :           0.00000000 Ha           0.00000000 eV
  | Entropy correction            :          -0.00010367 Ha          -0.00282095 eV
  | ---------------------------
  | Total energy                  :        -383.26926255 Ha      -10429.28727038 eV
  | Total energy, T -> 0          :        -383.26936622 Ha      -10429.29009133 eV  <-- do not rely on this value for anything but (periodic) metals
  | Electronic free energy        :        -383.26946989 Ha      -10429.29291228 eV

  Derived energy quantities:
  | Kinetic energy                :         382.26031423 Ha       10401.83238954 eV
  | Electrostatic energy          :        -718.67941559 Ha      -19556.26190977 eV
  | Energy correction for multipole
  | error in Hartree potential    :          -0.00610177 Ha          -0.16603757 eV
  | Sum of eigenvalues per atom                           :        -356.76165256 eV
  | Total energy (T->0) per atom                          :        -651.83063071 eV  <-- do not rely on this value for anything but (periodic) metals
  | Electronic free energy per atom                       :        -651.83080702 eV

  Self-consistency convergence accuracy:
  | Change of charge density      : 0.6694E-02
  | Change of sum of eigenvalues  : -.6684E+00 eV
  | Change of total energy        : 0.4043E-03 eV

  End self-consistency iteration #     7       :  max(cpu_time)    wall_clock(cpu1)
  | Time for this iteration                    :        2.029 s           2.028 s
  | Charge density update                      :        0.640 s           0.639 s
  | Density mixing                             :        0.013 s           0.013 s
  | Hartree multipole update                   :        0.005 s           0.005 s
  | Hartree multipole summation                :        0.364 s           0.365 s
  | Integration                                :        0.949 s           0.948 s
  | Solution of K.-S. eqns.                    :        0.057 s           0.058 s
  | Total energy evaluation                    :        0.000 s           0.000 s
------------------------------------------------------------

------------------------------------------------------------
          Begin self-consistency iteration #    8

  Date     :  20150727, Time     :  122239.533
------------------------------------------------------------
  Evaluating new KS density.
  Integration grid: deviation in total charge (<rho> - N_e) =   2.131628E-14
  Pulay mixing of updated and previous charge densities.

  Evaluating partitioned Hartree potential by multipole expansion.
  | Analytical far-field extrapolation by fixed multipoles:
  | Hartree multipole sum: apparent total charge =  -0.466849E-05
  Summing up the Hartree potential.
  Time summed over all CPUs for potential: real work        2.891 s, elapsed        2.912 s
  | RMS charge density error from multipole expansion :   0.179842E-01

  Integrating Hamiltonian matrix: batch-based integration.
  Time summed over all CPUs for integration: real work        7.351 s, elapsed        7.553 s

  Updating Kohn-Sham eigenvalues, eigenvectors, occupation numbers, and Fermi level.
  Solving generalized eigenproblem
  Updating Kohn-Sham eigenvalues and eigenfunctions.
  Solving real generalised eigenvalue problem by standard LAPACK (fast)
  Determining occupation numbers for Kohn-Sham eigenstates.
  | Chemical potential (Fermi level) in eV                 : -.20692896E+01
  | Error in electron count due to remaining E_F inaccuracy: -.90722097E-10
  | Maximum occupation number of highest empty state:  0.00E+00

  Highest occupied state (VBM) at     -6.26870954 eV
  | Occupation number:      2.00000000

  Lowest unoccupied state (CBM) at    -2.06928960 eV
  | Occupation number:      1.00000000

  Overall HOMO-LUMO gap:      4.19941994 eV.

  Total energy components:
  | Sum of eigenvalues            :        -209.81720954 Ha       -5709.41676363 eV
  | XC energy correction          :         -46.84559685 Ha       -1274.73354801 eV
  | XC potential correction       :          59.88131976 Ha        1629.45361643 eV
  | Free-atom electrostatic energy:        -178.69093704 Ha       -4862.42779436 eV
  | Hartree energy correction     :          -7.79683151 Ha        -212.16257997 eV
  | van der Waals energy corr.    :           0.00000000 Ha           0.00000000 eV
  | Entropy correction            :          -0.00010367 Ha          -0.00282095 eV
  | ---------------------------
  | Total energy                  :        -383.26925517 Ha      -10429.28706954 eV
  | Total energy, T -> 0          :        -383.26935884 Ha      -10429.28989049 eV  <-- do not rely on this value for anything but (periodic) metals
  | Electronic free energy        :        -383.26946251 Ha      -10429.29271143 eV

  Derived energy quantities:
  | Kinetic energy                :         382.27472877 Ha       10402.22462907 eV
  | Electrostatic energy          :        -718.69838709 Ha      -19556.77815060 eV
  | Energy correction for multipole
  | error in Hartree potential    :          -0.00619892 Ha          -0.16868128 eV
  | Sum of eigenvalues per atom                           :        -356.83854773 eV
  | Total energy (T->0) per atom                          :        -651.83061816 eV  <-- do not rely on this value for anything but (periodic) metals
  | Electronic free energy per atom                       :        -651.83079446 eV

  Self-consistency convergence accuracy:
  | Change of charge density      : 0.4022E-02
  | Change of sum of eigenvalues  : -.1230E+01 eV
  | Change of total energy        : 0.2008E-03 eV

  End self-consistency iteration #     8       :  max(cpu_time)    wall_clock(cpu1)
  | Time for this iteration                    :        2.028 s           2.028 s
  | Charge density update                      :        0.641 s           0.641 s
  | Density mixing                             :        0.014 s           0.014 s
  | Hartree multipole update                   :        0.005 s           0.005 s
  | Hartree multipole summation                :        0.365 s           0.365 s
  | Integration                                :        0.946 s           0.946 s
  | Solution of K.-S. eqns.                    :        0.057 s           0.056 s
  | Total energy evaluation                    :        0.000 s           0.000 s
------------------------------------------------------------

------------------------------------------------------------
          Begin self-consistency iteration #    9

  Date     :  20150727, Time     :  122241.561
------------------------------------------------------------
  Evaluating new KS density.
  Integration grid: deviation in total charge (<rho> - N_e) =  -9.069367E-11
  Pulay mixing of updated and previous charge densities.

  Evaluating partitioned Hartree potential by multipole expansion.
  | Analytical far-field extrapolation by fixed multipoles:
  | Hartree multipole sum: apparent total charge =  -0.466390E-05
  Summing up the Hartree potential.
  Time summed over all CPUs for potential: real work        2.892 s, elapsed        2.912 s
  | RMS charge density error from multipole expansion :   0.179688E-01

  Integrating Hamiltonian matrix: batch-based integration.
  Time summed over all CPUs for integration: real work        7.359 s, elapsed        7.560 s

  Updating Kohn-Sham eigenvalues, eigenvectors, occupation numbers, and Fermi level.
  Solving generalized eigenproblem
  Updating Kohn-Sham eigenvalues and eigenfunctions.
  Solving real generalised eigenvalue problem by standard LAPACK (fast)
  Determining occupation numbers for Kohn-Sham eigenstates.
  | Chemical potential (Fermi level) in eV                 : -.20695394E+01
  | Error in electron count due to remaining E_F inaccuracy: -.41486459E-09
  | Maximum occupation number of highest empty state:  0.00E+00

  Highest occupied state (VBM) at     -6.27218739 eV
  | Occupation number:      2.00000000

  Lowest unoccupied state (CBM) at    -2.06953944 eV
  | Occupation number:      1.00000000

  Overall HOMO-LUMO gap:      4.20264795 eV.

  Total energy components:
  | Sum of eigenvalues            :        -209.81865310 Ha       -5709.45604484 eV
  | XC energy correction          :         -46.84531172 Ha       -1274.72578911 eV
  | XC potential correction       :          59.88095655 Ha        1629.44373290 eV
  | Free-atom electrostatic energy:        -178.69093704 Ha       -4862.42779436 eV
  | Hartree energy correction     :          -7.79530844 Ha        -212.12113539 eV
[...]
   Van der Waals               : 0.778526E-03 0.220528E-02 -.311098E-03
   ----------------------------------------------------------------
   Total forces(   7)            : 0.245227E+00 0.516513E+00 0.276754E+00
  atom #    8
   Hellmann-Feynman + Multipole  : -.452228E+01 0.226894E+01 -.965799E+01
   Pulay + GGA                   : 0.594962E+01 -.240065E+01 0.105131E+02
   Van der Waals               : 0.127094E-02 0.367655E-02 0.325484E-02
   ----------------------------------------------------------------
   Total forces(   8)            : 0.142861E+01 -.128035E+00 0.858408E+00
  atom #    9
   Hellmann-Feynman + Multipole  : -.119633E+00 -.389190E+00 -.690144E+00
   Pulay + GGA                   : 0.916788E-02 0.964065E-01 0.126603E+00
   Van der Waals               : 0.240792E-02 0.288615E-02 0.378014E-02
   ----------------------------------------------------------------
   Total forces(   9)            : -.108057E+00 -.289897E+00 -.559761E+00
  atom #   10
   Hellmann-Feynman + Multipole  : -.124715E+01 0.645934E+00 -.270364E+00
   Pulay + GGA                   : 0.121883E+00 -.758878E-01 0.183092E-01
   Van der Waals               : -.162265E-02 0.137806E-02 0.151177E-02
   ----------------------------------------------------------------
   Total forces(  10)            : -.112689E+01 0.571424E+00 -.250543E+00
  atom #   11
   Hellmann-Feynman + Multipole  : -.123146E+02 -.537065E+01 -.146161E+01
   Pulay + GGA                   : 0.131608E+02 0.676392E+01 0.813220E+00
   Van der Waals               : 0.330654E-02 -.849211E-02 -.425424E-03
   ----------------------------------------------------------------
   Total forces(  11)            : 0.849469E+00 0.138479E+01 -.648820E+00
  atom #   12
   Hellmann-Feynman + Multipole  : -.279007E+00 -.792918E-01 -.503971E-01
   Pulay + GGA                   : 0.134396E+00 -.705255E-01 0.368562E-01
   Van der Waals               : 0.103255E-02 -.578472E-02 -.212737E-02
   ----------------------------------------------------------------
   Total forces(  12)            : -.143578E+00 -.155602E+00 -.156683E-01
  atom #   13
   Hellmann-Feynman + Multipole  : -.675196E+00 -.131068E+01 0.629556E+00
   Pulay + GGA                   : 0.493172E-01 0.106325E+00 -.751926E-01
   Van der Waals               : -.449924E-03 -.364709E-02 0.152789E-02
   ----------------------------------------------------------------
   Total forces(  13)            : -.626329E+00 -.120800E+01 0.555891E+00
  atom #   14
   Hellmann-Feynman + Multipole  : 0.127271E+01 -.152155E+02 0.150128E+01
   Pulay + GGA                   : -.322486E+00 0.152733E+02 -.276861E+01
   Van der Waals               : -.770062E-03 -.652958E-02 0.558120E-03
   ----------------------------------------------------------------
   Total forces(  14)            : 0.949456E+00 0.512876E-01 -.126677E+01
  atom #   15
   Hellmann-Feynman + Multipole  : -.261775E+00 0.466919E+00 0.254755E+00
   Pulay + GGA                   : -.716811E-01 0.903770E-01 0.842938E-01
   Van der Waals               : 0.322749E-02 -.139057E-02 -.352826E-02
   ----------------------------------------------------------------
   Total forces(  15)            : -.330229E+00 0.555905E+00 0.335521E+00
  atom #   16
   Hellmann-Feynman + Multipole  : -.726964E+00 -.802908E+00 0.110181E+01
   Pulay + GGA                   : 0.370823E-01 0.641648E-01 -.666104E-01
   Van der Waals               : 0.490373E-03 -.492841E-02 0.636881E-04
   ----------------------------------------------------------------
   Total forces(  16)            : -.689392E+00 -.743672E+00 0.103526E+01
  Timings for vdw_correction_hirshfeld (Tkatchenko-Scheffler 2009):
  | CPU time:        5.422 s, Wall clock time:        5.423 s.
  Removing unitary transformations (pure translations, rotations) from forces on atoms.
  Atomic forces before filtering:
  | Net force on center of mass :  0.511534E-02 0.591500E-02 -.987547E-02 eV/A
  | Net torque on center of mass:  0.119261E-01 0.192142E-01 -.240132E-01 eV
  Atomic forces after filtering:
  | Net force on center of mass :  0.267609E-15 -.535218E-15 0.000000E+00 eV/A
  | Net torque on center of mass:  0.151054E-14 -.188817E-14 0.000000E+00 eV
 
  Energy and forces in a compact form:
  | Total energy uncorrected      :         -0.104293625585553E+05 eV
  | Total energy corrected        :         -0.104293653795032E+05 eV  <-- do not rely on this value for anything but (periodic) metals
  | Electronic free energy        :         -0.104293682004511E+05 eV
  Total atomic forces (unitary forces cleaned) [eV/Ang]:
  |   1         -0.169403519717662E+01          0.171047774135656E+01         -0.179727473346124E+01
  |   2          0.100509057459928E+01         -0.178352654346193E+01          0.787658293688778E+00
  |   3          0.797654048445610E+00          0.100466274175882E+00         -0.851058736328512E-01
  |   4         -0.171271865424554E+00         -0.573444550721082E-01          0.806975731634091E+00
  |   5         -0.256728509413710E+00         -0.152435097446331E+01         -0.105503023915450E+01
  |   6         -0.122939520747244E+00          0.100261081652741E+01          0.101738499399796E+01
  |   7          0.245180396162271E+00          0.515984513054337E+00          0.277375001230802E+00
  |   8          0.142886986842279E+01         -0.128003494155912E+00          0.859777100497368E+00
  |   9         -0.108173206118276E+00         -0.289721091159848E+00         -0.558471545970257E+00
  |  10         -0.112650209520908E+01          0.571693546996860E+00         -0.248860125617532E+00
  |  11          0.848669643851024E+00          0.138427044198376E+01         -0.648636356057950E+00
  |  12         -0.144364743264696E+00         -0.155840797107581E+00         -0.151989226527554E-01
  |  13         -0.627243473705892E+00         -0.120849353872638E+01          0.556026153954613E+00
  |  14          0.948184721867166E+00          0.507215485160749E-01         -0.126692016531064E+01
  |  15         -0.331809375621735E+00          0.555291880984828E+00          0.335137318786843E+00
  |  16         -0.690581266666338E+00         -0.744235869448649E+00          0.103516336806727E+01
 
  ------------------------------------ 
  Start decomposition of the XC Energy 
  ------------------------------------ 
  Hartree-Fock part   :          0.000000000 Ha              0.000000000 eV
  ------------------------------------ 
  X Energy            :        -45.189477564 Ha          -1229.668249342 eV
  C Energy GGA        :         -1.655606950 Ha            -45.051357289 eV
  Total XC Energy     :        -46.845084513 Ha          -1274.719606632 eV
  LDA X and C from self-consistent density 
  X Energy LDA        :        -40.726135737 Ha          -1108.214538749 eV
  C Energy LDA        :         -3.337140361 Ha            -90.808209488 eV
  ------------------------------------ 
  End decomposition of the XC Energy 
  ------------------------------------ 
  Performing Hirshfeld analysis of fragment charges and moments.
  ----------------------------------------------------------------------
  | Atom     1: O
  |   Hirshfeld charge        :     -0.12982698
  |   Free atom volume        :     23.95238533
  |   Hirshfeld volume        :     21.75404267
  |   Hirshfeld dipole vector :      0.01231342       0.01973412       0.02645300
  |   Hirshfeld dipole moment :      0.03522523
  |   Hirshfeld second moments:      0.07430855      -0.00996460      -0.00862145
  |                                 -0.00996460       0.04534830      -0.02632965
  |                                 -0.00862145      -0.02632965       0.05672996
  ----------------------------------------------------------------------
  | Atom     2: H
  |   Hirshfeld charge        :      0.11199437
  |   Free atom volume        :     10.44207651
  |   Hirshfeld volume        :     11.22896275
  |   Hirshfeld dipole vector :     -0.00595263       0.01624899       0.00148987
  |   Hirshfeld dipole moment :      0.01736903
  |   Hirshfeld second moments:      0.01981156       0.01473692      -0.00926810
  |                                  0.01473692       0.00239751       0.01617936
  |                                 -0.00926810       0.01617936       0.02531453
  ----------------------------------------------------------------------
  | Atom     3: H
  |   Hirshfeld charge        :      0.09883444
  |   Free atom volume        :     10.44207651
  |   Hirshfeld volume        :      9.70098537
  |   Hirshfeld dipole vector :      0.01517472       0.00077998       0.00588395
  |   Hirshfeld dipole moment :      0.01629421
  |   Hirshfeld second moments:      0.01838499      -0.01533618      -0.00524459
  |                                 -0.01533618       0.05118931       0.00533724
  |                                 -0.00524459       0.00533724       0.05344674
  ----------------------------------------------------------------------
  | Atom     4: H
  |   Hirshfeld charge        :      0.10488758
  |   Free atom volume        :     10.44207651
  |   Hirshfeld volume        :      9.35669902
  |   Hirshfeld dipole vector :     -0.01296479      -0.00336453       0.01966526
  |   Hirshfeld dipole moment :      0.02379345
  |   Hirshfeld second moments:      0.06271200       0.00874321       0.00385253
  |                                  0.00874321       0.06423447       0.00449924
  |                                  0.00385253       0.00449924       0.01786184
  ----------------------------------------------------------------------
  | Atom     5: O
  |   Hirshfeld charge        :     -0.21887424
  |   Free atom volume        :     23.95238533
  |   Hirshfeld volume        :     21.78352996
  |   Hirshfeld dipole vector :     -0.03063921       0.02399248      -0.00100437
  |   Hirshfeld dipole moment :      0.03892825
  |   Hirshfeld second moments:      0.02855797       0.04952735      -0.01358629
  |                                  0.04952735       0.04276809       0.01872980
  |                                 -0.01358629       0.01872980       0.06119673
  ----------------------------------------------------------------------
  | Atom     6: H
  |   Hirshfeld charge        :      0.13192622
  |   Free atom volume        :     10.44207651
  |   Hirshfeld volume        :      9.59131964
  |   Hirshfeld dipole vector :      0.00820148       0.06271781       0.04896123
  |   Hirshfeld dipole moment :      0.07998743
  |   Hirshfeld second moments:      0.04324263       0.00871210      -0.01209499
  |                                  0.00871210       0.04657927      -0.00309125
  |                                 -0.01209499      -0.00309125       0.07297133
  ----------------------------------------------------------------------
  | Atom     7: H
  |   Hirshfeld charge        :      0.14437945
  |   Free atom volume        :     10.44207651
  |   Hirshfeld volume        :      8.93284217
  |   Hirshfeld dipole vector :     -0.07592052      -0.04799266       0.02080977
  |   Hirshfeld dipole moment :      0.09219690
  |   Hirshfeld second moments:      0.05464759       0.01470616      -0.00373494
  |                                  0.01470616       0.07661204       0.01271928
  |                                 -0.00373494       0.01271928       0.08002079
  ----------------------------------------------------------------------
  | Atom     8: O
  |   Hirshfeld charge        :     -0.23123213
  |   Free atom volume        :     23.95238533
  |   Hirshfeld volume        :     23.27834838
  |   Hirshfeld dipole vector :     -0.01149338      -0.03077105       0.02922960
  |   Hirshfeld dipole moment :      0.04396959
  |   Hirshfeld second moments:      0.03952505      -0.01791122       0.00540240
  |                                 -0.01791122       0.01165301       0.04509732
  |                                  0.00540240       0.04509732      -0.02539273
  ----------------------------------------------------------------------
  | Atom     9: H
  |   Hirshfeld charge        :      0.06723672
  |   Free atom volume        :     10.44207651
  |   Hirshfeld volume        :     12.12727724
  |   Hirshfeld dipole vector :     -0.01364772       0.01865018       0.02302575
  |   Hirshfeld dipole moment :      0.03262322
  |   Hirshfeld second moments:      0.02636690      -0.02064352      -0.00858003
  |                                 -0.02064352       0.00455033       0.00224688
  |                                 -0.00858003       0.00224688      -0.04306946
  ----------------------------------------------------------------------
  | Atom    10: H
  |   Hirshfeld charge        :      0.10337628
  |   Free atom volume        :     10.44207651
  |   Hirshfeld volume        :     11.56273907
  |   Hirshfeld dipole vector :      0.04770473      -0.04513117      -0.00390717
  |   Hirshfeld dipole moment :      0.06578624
  |   Hirshfeld second moments:      0.02481137      -0.00036128      -0.00477007
  |                                 -0.00036128       0.02155986       0.02242883
  |                                 -0.00477007       0.02242883       0.00718129
  ----------------------------------------------------------------------
  | Atom    11: O
  |   Hirshfeld charge        :     -0.25665330
  |   Free atom volume        :     23.95238533
  |   Hirshfeld volume        :     22.67855364
  |   Hirshfeld dipole vector :      0.01570430       0.03062256       0.03633562
  |   Hirshfeld dipole moment :      0.05004641
  |   Hirshfeld second moments:      0.02018698      -0.01635001      -0.00944641
  |                                 -0.01635001       0.02654676      -0.05202004
  |                                 -0.00944641      -0.05202004      -0.01010642
  ----------------------------------------------------------------------
  | Atom    12: H
  |   Hirshfeld charge        :      0.08630224
  |   Free atom volume        :     10.44207651
  |   Hirshfeld volume        :     10.27168014
  |   Hirshfeld dipole vector :      0.04511549      -0.01662043       0.03011907
  |   Hirshfeld dipole moment :      0.05673451
  |   Hirshfeld second moments:      0.01926905       0.00502809      -0.01622446
  |                                  0.00502809       0.05826881      -0.00783953
  |                                 -0.01622446      -0.00783953       0.01989203
  ----------------------------------------------------------------------
  | Atom    13: H
  |   Hirshfeld charge        :      0.12651970
  |   Free atom volume        :     10.44207651
  |   Hirshfeld volume        :      8.71015257
  |   Hirshfeld dipole vector :      0.01975323       0.09377495      -0.03710508
  |   Hirshfeld dipole moment :      0.10276536
  |   Hirshfeld second moments:      0.07634407      -0.01086715       0.00141800
  |                                 -0.01086715       0.06990887      -0.02042426
  |                                  0.00141800      -0.02042426       0.06622896
  ----------------------------------------------------------------------
  | Atom    14: O
  |   Hirshfeld charge        :     -0.33930604
  |   Free atom volume        :     23.95238533
  |   Hirshfeld volume        :     23.52055628
  |   Hirshfeld dipole vector :     -0.00563823       0.07042965      -0.01353777
  |   Hirshfeld dipole moment :      0.07194023
  |   Hirshfeld second moments:     -0.04067864      -0.02179127      -0.06174312
  |                                 -0.02179127      -0.02478103       0.00704858
  |                                 -0.06174312       0.00704858      -0.00584085
  ----------------------------------------------------------------------
  | Atom    15: H
  |   Hirshfeld charge        :      0.11882960
  |   Free atom volume        :     10.44207651
  |   Hirshfeld volume        :      7.42555251
  |   Hirshfeld dipole vector :     -0.06226798       0.08874670       0.06136195
  |   Hirshfeld dipole moment :      0.12457354
  |   Hirshfeld second moments:      0.08443671      -0.00009885      -0.01886295
  |                                 -0.00009885       0.08687182      -0.00586333
  |                                 -0.01886295      -0.00586333       0.10055204
  ----------------------------------------------------------------------
  | Atom    16: H
  |   Hirshfeld charge        :      0.08156304
  |   Free atom volume        :     10.44207651
  |   Hirshfeld volume        :      9.10285481
  |   Hirshfeld dipole vector :      0.01578186       0.04719512      -0.03691085
  |   Hirshfeld dipole moment :      0.06195851
  |   Hirshfeld second moments:      0.04297587      -0.02069335       0.00373272
  |                                 -0.02069335       0.06737759       0.01004441
  |                                  0.00373272       0.01004441       0.02847868
  ----------------------------------------------------------------------


------------------------------------------------------------------------------
  Final output of selected total energy values:

  The following output summarizes some interesting total energy values
  at the end of a run (AFTER all relaxation, molecular dynamics, etc.).

  | Total energy of the DFT / Hartree-Fock s.c.f. calculation      :         -10429.362558555 eV
  | Final zero-broadening corrected energy (caution - metals only) :         -10429.365379503 eV
  | For reference only, the value of 1 Hartree used in FHI-aims is :             27.211384500 eV

  Before relying on these values, please be sure to understand exactly which
  total energy value is referred to by a given number. Different objects may
  all carry the same name 'total energy'. Definitions:

  Total energy of the DFT / Hartree-Fock s.c.f. calculation:
  | Note that this energy does not include ANY quantities calculated after the
  | s.c.f. cycle, in particular not ANY RPA, MP2, etc. many-body perturbation terms.

  Final zero-broadening corrected energy:
  | For metallic systems only, a broadening of the occupation numbers at the Fermi
  | level can be extrapolated back to zero broadening by an electron-gas inspired
  | formula. For all systems that are not real metals, this value can be
  | meaningless and should be avoided.

------------------------------------------------------------------------------

------------------------------------------------------------
          Leaving FHI-aims.
          Date     :  20150727, Time     :  122301.970

          Computational steps:
          | Number of self-consistency cycles          :           16

          Detailed time accounting                     :  max(cpu_time)    wall_clock(cpu1)
          | Total time                                 :       39.286 s          39.326 s
          | Preparation time                           :        0.169 s           0.597 s
          | Grid partitioning                          :        0.158 s           0.158 s
          | Preloading free-atom quantities on grid    :        0.014 s           0.013 s
          | Free-atom superposition energy             :        0.073 s           0.074 s
          | Total time for integrations                :       16.627 s          16.624 s
          | Total time for solution of K.-S. equations :        1.121 s           1.122 s
          | Total time for density & force components  :       13.039 s          13.037 s
          | Total time for mixing                      :        0.216 s           0.219 s
          | Total time for Hartree multipole update    :        0.079 s           0.080 s
          | Total time for Hartree multipole sum       :        7.043 s           7.044 s
          | Total time for total energy evaluation     :        0.005 s           0.005 s
          | Total time for scaled ZORA corrections     :        0.000 s           0.000 s
          | Total time for TS (2009) vdW correction    :        0.058 s           0.058 s

          Have a nice day.
------------------------------------------------------------
