  MPI-parallelism will be employed.
------------------------------------------------------------
          Invoking FHI-aims ...
          Version 081213
          Compiled on 2013/08/29 at 17:41:06 on host generoso.

          When using FHI-aims, please cite the following reference:

          Volker Blum, Ralf Gehrke, Felix Hanke, Paula Havu,
          Ville Havu, Xinguo Ren, Karsten Reuter, and Matthias Scheffler,
          'Ab Initio Molecular Simulations with Numeric Atom-Centered Orbitals: FHI-aims',
          Computer Physics Communications 180, 2175-2196 (2009)

          For any questions about FHI-aims, please visit the aimsclub website
          with its forums and wiki. Contributions to both the forums and the
          wiki are warmly encouraged - they are for you, and everyone is welcome there.

------------------------------------------------------------

  Date     :  20150727, Time     :  121056.060
  Time zero on CPU 1             :   0.399930000000000E-01  s.
  Internal wall clock time zero  :           207231056.060  s.

  Using        8 parallel tasks.
  Task        0 on host gen59 reporting.
  Task        1 on host gen59 reporting.
  Task        2 on host gen59 reporting.
  Task        3 on host gen59 reporting.
  Task        4 on host gen59 reporting.
  Task        5 on host gen59 reporting.
  Task        6 on host gen59 reporting.
  Task        7 on host gen59 reporting.

  Performing system and environment tests:
  | Environment variable OMP_NUM_THREADS correctly set to 1.
  | Checking for scalapack...
  | No scalapack compiled in.

  Obtaining array dimensions for all initial allocations:
  
  -----------------------------------------------------------------------
  Parsing control.in (first pass over file, find array dimensions only).
  The contents of control.in will be repeated verbatim below
  unless switched off by setting 'verbatim_writeout .false.' .
  in the first line of control.in .
  -----------------------------------------------------------------------
  
  #########################################################################################
  #
  #  Volker Blum, FHI 2008 : Test run input file control.in
  #
  #########################################################################################
  #
  #  Physical model
  #
    xc                 rpbe
    spin               none
    relativistic       atomic_zora scalar
    charge             0.
   vdw_correction_hirshfeld
  #
  #  SCF convergence
  #
    occupation_type    gaussian 0.01
    mixer              pulay
      n_max_pulay        10
      charge_mix_param   0.1
    sc_accuracy_rho    5E-5
    sc_accuracy_eev    5E-3
    sc_accuracy_etot   5E-6
    sc_iter_limit      3000
  #
  #  Eigenvalue solver
  #
    KS_method          lapack
      empty_states       8
      basis_threshold    0.e-5
  #
  #  Efficiency
  #
  #   all previous settings are now default, except stratmann still
  #   undecided. Continue to handle stratmann with care, if at all.
  #
  #  partition_type stratmann
    partition_type rho_r2
  #  hartree_partition_type stratmann
  #
  #  Oprions for large clusters (100's of atoms: memory saving / better scaling)
  #
  # for periodic systems:
  #
    density_update_method orbital
    packed_matrix_format none
  #  k_grid 6 6 6
  #  output k_eigenvalue 1
  #  distributed_spline_storage .true.
  #
  #  Relaxation
  #
  #  relax_geometry   bfgs 5.e-3
    sc_accuracy_forces 5.E-4
    final_forces_cleaned .true.
  #
  #  Output options
  #
  #  output mulliken
    output Hirshfeld
  #  output dipole
  
  #harmonic_length_scale 0.001
  
  ################################################################################
  #
  #  FHI-aims code project
  #  VB, Fritz-Haber Institut, 2007
  #
  #  Suggested "safe" defaults for H atom (to be pasted into control.in file)
  #  Basis constructed for a non-relativistic H2 molecule using the
  #  PW-LDA functional.
  #
  ################################################################################
    species        H
  #     global species definitions
      nucleus             1
      cut_pot             4.0  2.0  1.0
      cut_free_atom       finite 8.0
      logarithmic         0.00010000 100.00  1.0123
      basis_dep_cutoff    1d-4  # 1d-4 is safe default - please check 5d-4 if you wish!
      radial_base         24 7.0
      radial_multiplier   2
      angular_grids       specified
        division   0.2783  110
        division   0.3822  194
        division   0.5626  302
  #      division   0.5922  434
  #      division   0.6227  590
  #      division   0.7206  770
        outer_grid  302
      l_hartree           4
  ################################################################################
  #
  #  Definition of "minimal" basis
  #
  ################################################################################
  #     valence basis states
      valence      1  s   1.
  #     ion occupancy
      ion_occ      1  s   0.5
  ################################################################################
  #
  #  Suggested additional basis functions. For production calculations,
  #  uncomment them one after another (the most important basis functions are
  #  listed first).
  #
  ################################################################################
  #  "First tier" - improvements: -1014.90 meV to -62.69 meV
       hydro 2 s 2.1
       hydro 2 p 3.5
  #  "Second tier" - improvements: -12.89 meV to -1.83 meV
       hydro 1 s 0.85
       hydro 2 p 3.7
       hydro 2 s 1.2
       hydro 3 d 7
  #  "Third tier" - improvements: -0.25 meV to -0.12 meV
  #     hydro 4 f 11.2
  #     hydro 3 p 4.8
  #     hydro 4 d 9
  #     hydro 3 s 3.2
  
  ################################################################################
  #
  #  FHI-aims code project
  #  VB, Fritz-Haber Institut, 2007
  #
  #  Suggested "safe" defaults for O atom (to be pasted into control.in file)
  #  All values have been tested for a non-relativistic, non-spinpolarized O2
  #  molecule using the PW-LDA functional. Validity for PBE is expected.
  #
  #  Constructed for dimers: 1.0 A, 1.208 A, 1.5 A, 2.0 A, 3.0 A
  #
  ################################################################################
    species        O
  #     global species definitions
      nucleus             8
      mass                15.9994
      l_hartree           4
      cut_pot             4.0  2.0  1.0
      cut_free_atom       finite 8.0
      basis_dep_cutoff    1d-4  # 1d-4 is safe default - please check 5d-4 if you wish!
      logarithmic         0.00010000 100.00  1.0123
      radial_base         36 7.0
      radial_multiplier   2
       angular_grids specified
        division   0.4087  110
        division   0.5181  194
        division   0.6184  302
  #      division   0.7315  434
  #      division   0.7934  590
  #      division   0.9656  770
  #      division   1.4041  974
  #      outer_grid 974
        outer_grid 302
  ################################################################################
  #
  #  Definition of "minimal" basis
  #
  ################################################################################
  #     valence basis states
      valence      2  s   2.
      valence      2  p   4.
  #     ion occupancy
      ion_occ      2  s   1.
      ion_occ      2  p   3.
  ################################################################################
  #
  #  Suggested additional basis functions. For production calculations,
  #  uncomment them one after another (the most important basis functions are
  #  listed first).
  #
  ################################################################################
  #  "First tier" - improvements: -699.05 meV to -159.38 meV
       hydro 2 p 1.8
       hydro 3 d 7.6
       hydro 3 s 6.4
  #  "Second tier" - improvements: -49.91 meV to -5.39 meV
       hydro 4 f 11.6
       hydro 3 p 6.2
       hydro 3 d 5.6
       hydro 5 g 17.6
       hydro 1 s 0.75
  #  "Third tier" - improvements: -2.83 meV to -0.50 meV
  #     ionic 2 p auto
  #     hydro 4 f 10.8
  #     hydro 4 d 4.7
  #     hydro 2 s 6.8
  #  "Fourth tier" - improvements: -0.40 meV to -0.12 meV
  #     hydro 3 p 5
  #     hydro 3 s 3.3
  #     hydro 5 g 15.6
  #     hydro 4 f 17.6
  #     hydro 4 d 14
  # Further basis functions - -0.08 meV and below
  #     hydro 3 s 2.1
  #     hydro 4 d 11.6
  #     hydro 3 p 16
  #     hydro 2 s 17.2
  
  
  -----------------------------------------------------------------------
  Completed first pass over input file control.in .
  -----------------------------------------------------------------------
  
  
  -----------------------------------------------------------------------
  Parsing geometry.in (first pass over file, find array dimensions only).
  The contents of geometry.in will be repeated verbatim below
  unless switched off by setting 'verbatim_writeout .false.' .
  in the first line of geometry.in .
  -----------------------------------------------------------------------
  
  atom      -4.053030000      0.065001000     -1.525160000  O
  atom      -4.566710000      0.974813000     -1.912820000  H
  atom      -3.067820000      0.330172000     -1.477310000  H
  atom      -4.370360000     -0.049164000     -0.572274000  H
  atom      -4.581760000     -0.256435000      0.939478000  O
  atom      -4.349860000      0.471090000      1.504340000  H
  atom      -5.393870000     -0.726611000      1.228070000  H
  atom      -5.293160000      2.192130000     -2.328800000  O
  atom      -4.829300000      2.988660000     -1.973850000  H
  atom      -5.428570000      2.328640000     -3.235170000  H
  
  -----------------------------------------------------------------------
  Completed first pass over input file geometry.in .
  -----------------------------------------------------------------------
  
 
  Basic array size parameters: 
  | Number of species                 :        2
  | Number of atoms                   :       10
  | Max. basis fn. angular momentum   :        4
  | Max. atomic/ionic basis occupied n:        2
  | Max. number of basis fn. types    :        2
  | Max. radial fns per species/type  :        8
  | Max. logarithmic grid size        :     1301
  | Max. radial integration grid size :       73
  | Max. angular integration grid size:      302
  | Max. angular grid division number :        8
  | Radial grid for Hartree potential :     1301
  | Number of spin channels           :        1

------------------------------------------------------------
          Reading file control.in.
------------------------------------------------------------
  XC: Using RPBE gradient-corrected functionals.
  Spin treatment: No spin polarisation.
  Scalar relativistic treatment of kinetic energy: on-site free-atom approximation to ZORA.
  Charge =   0.000000E+00: Neutral system requested explicitly.
  Using non-empirical van der Waals correction (Hirshfeld partitioning):
  Occupation type: Gaussian broadening, width =   0.100000E-01 eV.
  Using pulay charge density mixing.
  Pulay mixing - number of memorized iterations:   10
  Charge density mixing - mixing parameter:     0.1000
  Convergence accuracy of self-consistent charge density: 0.5000E-04
  Convergence accuracy of sum of eigenvalues: 0.5000E-02
  Convergence accuracy of total energy: 0.5000E-05
  Maximum number of s.-c. iterations  :  3000
  Kohn-Sham eigenvalues and eigenfunctions calculated by lapack diagonalisation (D&C).
  Number of empty states per atom:        8
  Threshold for basis singularities: 0.0000E+00
  Partition function in integrals calculations: rho / r^2
 Using packed matrix format           0
  Convergence accuracy of forces: 0.5000E-03
  Cleaning forces before final output.
  Hirshfeld charge analysis will be performed.
 
  Reading configuration options for species H                   .
  | Found nuclear charge :   1.0000
  | Found cutoff potl. onset [A], width [A], scale factor :    4.00000    2.00000    1.00000
  | Found cutoff specification for free atom: Cutoff potential begins at    8.00000 A.
  | Found logarithmic grid data [bohr] : 0.1000E-03 0.1000E+03 0.1012E+01
  | Threshold for basis-dependent cutoff potential is   0.100000E-03
  | Found data for basic radial integration grid :    24 points, outermost radius =    7.000 A
  | Found multiplier for basic radial grid :   2
  | Found angular grid specification: user-specified.
  | Specified grid contains     4 separate shells.
  | Check grid settings after all constraints further below.
  | Found l_max for Hartree potential  :   4
  | Found free-atom valence shell :  1 s   1.000
  | No ionic wave fns used. Skipping ion_occ.
  | Found hydrogenic basis function :  2 s   2.100
  | Found hydrogenic basis function :  2 p   3.500
  | Found hydrogenic basis function :  1 s   0.850
  | Found hydrogenic basis function :  2 p   3.700
  | Found hydrogenic basis function :  2 s   1.200
  | Found hydrogenic basis function :  3 d   7.000
  Species H                   : Missing cutoff potential type.
  Defaulting to exp(1/x)/(1-x)^2 type cutoff potential.
  Species H : On-site basis accuracy parameter (for Gram-Schmidt orthonormalisation) not specified.
  Using default value basis_acc =  0.1000000E-03.
  Species H                   : Using default innermost maximum threshold i_radial=  2 for radial functions.
  Species H                   : Basic radial grid will be enhanced according to radial_multiplier =   2, to contain    49 grid points.
 
  Reading configuration options for species O                   .
  | Found nuclear charge :   8.0000
  | Found atomic mass :    15.9994000000000      amu
  | Found l_max for Hartree potential  :   4
  | Found cutoff potl. onset [A], width [A], scale factor :    4.00000    2.00000    1.00000
  | Found cutoff specification for free atom: Cutoff potential begins at    8.00000 A.
  | Threshold for basis-dependent cutoff potential is   0.100000E-03
  | Found logarithmic grid data [bohr] : 0.1000E-03 0.1000E+03 0.1012E+01
  | Found data for basic radial integration grid :    36 points, outermost radius =    7.000 A
  | Found multiplier for basic radial grid :   2
  | Found angular grid specification: user-specified.
  | Specified grid contains     4 separate shells.
  | Check grid settings after all constraints further below.
  | Found free-atom valence shell :  2 s   2.000
  | Found free-atom valence shell :  2 p   4.000
  | No ionic wave fns used. Skipping ion_occ.
  | No ionic wave fns used. Skipping ion_occ.
  | Found hydrogenic basis function :  2 p   1.800
  | Found hydrogenic basis function :  3 d   7.600
  | Found hydrogenic basis function :  3 s   6.400
  | Found hydrogenic basis function :  4 f  11.600
  | Found hydrogenic basis function :  3 p   6.200
  | Found hydrogenic basis function :  3 d   5.600
  | Found hydrogenic basis function :  5 g  17.600
  | Found hydrogenic basis function :  1 s   0.750
  Species O                   : Missing cutoff potential type.
  Defaulting to exp(1/x)/(1-x)^2 type cutoff potential.
  Species O : On-site basis accuracy parameter (for Gram-Schmidt orthonormalisation) not specified.
  Using default value basis_acc =  0.1000000E-03.
  Species O                   : Using default innermost maximum threshold i_radial=  2 for radial functions.
  Species O                   : Basic radial grid will be enhanced according to radial_multiplier =   2, to contain    73 grid points.
 
  Finished reading input file 'control.in'. Consistency checks are next.
 
  Target number of points in a grid batch is not set. Defaulting to  100
  Method for grid partitioning is not set. Defaulting to parallel hash+maxmin partitioning.
  Batch size limit is not set. Defaulting to    200
  By default, will store active basis functions for each batch.
  If in need of memory, prune_basis_once .false. can be used to disable this option.
  communication_type for Hartree potential was not specified.
  Defaulting to calc_hartree .
  Pulay mixer: Number of initial linear mixing iterations not set.
  Defaulting to    0 iterations.
  Work space size for distributed Hartree potential not set.
  Defaulting to   0.200000E+03 MB.
  Algorithm-dependent basis array size parameters:
  | n_max_pulay                         :       10
  Geometry relaxation not requested: no relaxation will be performed.
  Handling of forces: Unphysical translation and rotation will be removed from forces.
  No accuracy limit for integral partition fn. given. Defaulting to 0.1000E-14.
  No threshold value for u(r) in integrations given. Defaulting to 0.1000E-05.
  No accuracy for occupation numbers given. Defaulting to 0.1000E-07.
  No threshold value for occupation numbers given. Defaulting to 0.0000E+00.
  No accuracy for fermi level given. Defaulting to 0.1000E-19.
  Maximum # of iterations to find E_F not set. Defaulting to  200.
  Will not use alltoall communication since running on < 1024 CPUs.
  Partitioning for Hartree potential was not defined. Using partition_type for integrals.
  | Reporting present value of keyword multip_moments_threshold  :       0.10000000E-09
  | This value may affect high angular momentum components of the Hartree potential in periodic systems.
  No q(lm)/r^(l+1) cutoff set for long-range Hartree potential.
  | Using default value of  0.100000E-09 .
  | Verify using the multipole_threshold keyword.
  Defaulting to new monopole extrapolation.
  Density update method: Loop over occupied states selected for charge density update.
------------------------------------------------------------


------------------------------------------------------------
          Reading geometry description geometry.in.
------------------------------------------------------------
  Input structure read successfully.
  The structure contains       10 atoms,  and a total of         31.000 electrons.

  Input geometry:
  | No unit cell requested.
  | Atomic structure:
  |       Atom                x [A]            y [A]            z [A]
  |    1: Species O             -4.053030         0.065001        -1.525160
  |    2: Species H             -4.566710         0.974813        -1.912820
  |    3: Species H             -3.067820         0.330172        -1.477310
  |    4: Species H             -4.370360        -0.049164        -0.572274
  |    5: Species O             -4.581760        -0.256435         0.939478
  |    6: Species H             -4.349860         0.471090         1.504340
  |    7: Species H             -5.393870        -0.726611         1.228070
  |    8: Species O             -5.293160         2.192130        -2.328800
  |    9: Species H             -4.829300         2.988660        -1.973850
  |   10: Species H             -5.428570         2.328640        -3.235170
  |

  | The smallest distance between any two atoms is         0.92654057 AA.
  |
  | The first atom of this pair is atom number                      8 .
  | The second atom of this pair is atom number                    10 .

  Structure-dependent array size parameters: 
  | Maximum number of distinct radial functions  :       18
  | Maximum number of basis functions            :      222
  | Number of Kohn-Sham states (occupied + empty):       56
------------------------------------------------------------

------------------------------------------------------------
          Preparing all fixed parts of the calculation.
------------------------------------------------------------
  Determining machine precision:
    2.225073858507201E-308
  Setting up grids for atomic and cluster calculations.

  Creating wave function, potential, and density for free atoms.

  Species: H

  List of occupied orbitals and eigenvalues:
    n    l              occ      energy [Ha]    energy [eV]
    1    0           1.0000        -0.241408        -6.5691


  Species: O

  List of occupied orbitals and eigenvalues:
    n    l              occ      energy [Ha]    energy [eV]
    1    0           2.0000       -18.944147      -515.4965
    2    0           2.0000        -0.883529       -24.0421
    2    1           4.0000        -0.330176        -8.9845

  Creating fixed part of basis set: Ionic, confined, hydrogenic.
 
  H                    hydrogenic:
 
  List of hydrogenic basis orbitals: 
    n    l      effective z      eigenvalue [eV]  inner max. [A]     outer max. [A]     outer radius [A]   
    2    0         2.100000       -14.9965           0.193241           1.317192           5.372934
    2    1         3.500000       -41.6672           0.602363           0.602363           4.056010
    1    0         0.850000        -9.8292           0.624864           0.624864           5.372934
    2    1         3.700000       -46.5653           0.573616           0.573616           3.909951
    2    0         1.200000        -4.5995           0.334977           2.228160           5.505921
    3    2         7.000000       -74.0753           0.680692           0.680692           3.769152
 
 
  O                    hydrogenic:
 
  List of hydrogenic basis orbitals: 
    n    l      effective z      eigenvalue [eV]  inner max. [A]     outer max. [A]     outer radius [A]   
    2    1         1.800000       -11.0118           1.178546           1.178546           5.432516
    3    2         7.600000       -87.3182           0.624117           0.624117           3.541422
    3    0         6.400000       -61.9209           0.061166           1.081887           4.306510
    4    3        11.600000      -114.4238           0.731621           0.731621           3.584982
    3    1         6.200000       -58.1113           0.255677           1.030255           4.306510
    3    2         5.600000       -47.4081           0.847222           0.847222           4.413102
    5    4        17.600000      -168.5799           0.749730           0.749730           3.372413
    1    0         0.750000        -7.6499           0.705275           0.705275           5.366508
 

  Adding cutoff potential to free-atom effective potential.
  Creating atomic-like basis functions for current effective potential.

  Species H                   :

  List of atomic basis orbitals and eigenvalues:
    n    l      energy [Ha]    energy [eV]    outer radius [A]
    1    0        -0.241374        -6.5681       5.372934


  Species O                   :

  List of atomic basis orbitals and eigenvalues:
    n    l      energy [Ha]    energy [eV]    outer radius [A]
    1    0       -18.944147      -515.4965       1.415745
    2    0        -0.883529       -24.0421       5.048305
    2    1        -0.330173        -8.9845       5.301302

  Assembling full basis from fixed parts.
  | Species H :   atomic orbital   1 s accepted.
  | Species H :    hydro orbital   2 s accepted.
  | Species H :    hydro orbital   1 s accepted.
  | Species H :    hydro orbital   2 s accepted.
  | Species H :    hydro orbital   2 p accepted.
  | Species H :    hydro orbital   2 p accepted.
  | Species H :    hydro orbital   3 d accepted.
  | Species O :   atomic orbital   1 s accepted.
  | Species O :    hydro orbital   3 s accepted.
  | Species O :   atomic orbital   2 s accepted.
  | Species O :    hydro orbital   1 s accepted.
  | Species O :    hydro orbital   3 p accepted.
  | Species O :   atomic orbital   2 p accepted.
  | Species O :    hydro orbital   2 p accepted.
  | Species O :    hydro orbital   3 d accepted.
  | Species O :    hydro orbital   3 d accepted.
  | Species O :    hydro orbital   4 f accepted.
  | Species O :    hydro orbital   5 g accepted.
 
  Basis size parameters after reduction:
  | Total number of radial functions:       18
  | Total number of basis functions :      222
 
  Testing on-site integration grid accuracy.
  |  Species  Function  <phi|h_atom|phi> (log., in eV)  <phi|h_atom|phi> (rad., in eV)
           1        1                 -6.5683835025                 -6.5684759159
           1        2                 13.3711789951                 13.3708738703
           1        3                 23.6590910787                 23.6532055418
           1        4                 16.2963827186                 16.1870710655 ***
           1        5                 28.7627214838                 28.7627215090
           1        6                 59.5965249172                 59.5965950857
           1        7                 60.2220506392                 60.2220503827
           2        8               -515.4964576505               -515.4964530710
           2        9                 15.3030791347                 15.3030722972
           2       10                -21.7296094581                -21.7296135470
           2       11                 14.2969371730                 14.2969701621
           2       12                 21.0679693190                 21.0679697493
           2       13                 -2.3833606469                 -2.3833613176
           2       14                 13.7067136422                 13.7066766629
           2       15                 45.8013116808                 45.8013116965
           2       16                 52.2309815402                 52.2309831494
           2       17                 85.4120732416                 85.4120732763
           2       18                142.1019167745                142.1019167817
 * Note: Onsite integrals marked "***" above are less accurate than
 * onsite_accuracy_threshold =    0.03000 eV. Usually, this is harmless.
 * When in doubt, tighten the "radial" and/or "radial_multiplier" flags to check.

  Preparing densities etc. for the partition functions (integrals / Hartree potential).

  Preparations completed.
  max(cpu_time)          :      0.173 s.
  Wall clock time (cpu1) :      0.512 s.
------------------------------------------------------------

------------------------------------------------------------
          Begin self-consistency loop: Initialization.

          Date     :  20150727, Time     :  121056.611
------------------------------------------------------------

  Initializing index lists of integration centers etc. from given atomic structure:
  | Number of centers in hartree potential         :        10
  | Number of centers in hartree multipole         :        10
  | Number of centers in electron density summation:        10
  | Number of centers in basis integrals           :        10
  | Number of centers in integrals                 :        10
  Partitioning the integration grid into batches with parallel hashing+maxmin method.
  | Number of batches:     1573
  | Maximal batch size:     191
  | Minimal batch size:      52
  | Average batch size:      82.403
  | Standard deviation of batch sizes:      28.141

  Integration load balanced across     8 MPI tasks.
  Work distribution over tasks is as follows:
  Task     0 has      16126 integration points.
  Task     1 has      16223 integration points.
  Task     2 has      16261 integration points.
  Task     3 has      16163 integration points.
  Task     4 has      16238 integration points.
  Task     5 has      16203 integration points.
  Task     6 has      16206 integration points.
  Task     7 has      16200 integration points.
  Initializing partition tables, free-atom densities, potentials, etc. across the integration grid (initialize_grid_storage).
  | Net number of integration points:   129620
  | of which are non-zero points    :   129137
  Obtaining max. number of non-zero basis functions in each batch (get_n_compute_maxes).
  | Maximal number of non-zero basis functions:      221 in task     0
  | Maximal number of non-zero basis functions:      221 in task     1
  | Maximal number of non-zero basis functions:      221 in task     2
  | Maximal number of non-zero basis functions:      221 in task     3
  | Maximal number of non-zero basis functions:      221 in task     4
  | Maximal number of non-zero basis functions:      221 in task     5
  | Maximal number of non-zero basis functions:      221 in task     6
  | Maximal number of non-zero basis functions:      221 in task     7
  Integrating Hamiltonian matrix: batch-based integration.
  Time summed over all CPUs for integration: real work        3.105 s, elapsed        3.177 s
  Integrating overlap matrix.
  Time summed over all CPUs for integration: real work        1.613 s, elapsed        1.645 s

  Updating Kohn-Sham eigenvalues, eigenvectors, occupation numbers, and Fermi level.
  Solving generalized eigenproblem
  Updating Kohn-Sham eigenvalues and eigenfunctions.
  Transforming overlap matrix and checking for singularities.
  Overlap matrix is nonsingular:
  | Lowest eigenvalue:  0.250434E-03
  Solving real generalised eigenvalue problem by standard LAPACK (fast)
  Determining occupation numbers for Kohn-Sham eigenstates.
  | Chemical potential (Fermi level) in eV                 : -.24983231E+01
  | Error in electron count due to remaining E_F inaccuracy: -.34106051E-12
  | Maximum occupation number of highest empty state:  0.00E+00

  Writing Kohn-Sham eigenvalues.

  State    Occupation    Eigenvalue [Ha]    Eigenvalue [eV]
      1       2.00000         -19.065133         -518.78866
      2       2.00000         -19.064849         -518.78094
      3       2.00000         -19.059127         -518.62524
      4       2.00000          -1.130016          -30.74929
      5       2.00000          -1.116419          -30.37930
      6       2.00000          -1.102817          -30.00917
      7       2.00000          -0.651341          -17.72389
      8       2.00000          -0.650723          -17.70708
      9       2.00000          -0.640930          -17.44059
     10       2.00000          -0.620521          -16.88523
     11       2.00000          -0.533809          -14.52568
     12       2.00000          -0.506664          -13.78703
     13       2.00000          -0.484024          -13.17096
     14       2.00000          -0.452648          -12.31719
     15       2.00000          -0.446063          -12.13798
     16       1.00000          -0.091812           -2.49832
     17       0.00000          -0.063376           -1.72456
     18       0.00000          -0.043198           -1.17548
     19       0.00000          -0.012752           -0.34701
     20       0.00000           0.001554            0.04228
     21       0.00000           0.031127            0.84701
     22       0.00000           0.061583            1.67576
     23       0.00000           0.070761            1.92551
     24       0.00000           0.080058            2.17848
     25       0.00000           0.097493            2.65292
     26       0.00000           0.103931            2.82811
     27       0.00000           0.111564            3.03582
     28       0.00000           0.120740            3.28549
     29       0.00000           0.134436            3.65818
     30       0.00000           0.147661            4.01807
     31       0.00000           0.160735            4.37383
     32       0.00000           0.177624            4.83339
     33       0.00000           0.199997            5.44218
     34       0.00000           0.216445            5.88977
     35       0.00000           0.240600            6.54705
     36       0.00000           0.250670            6.82108
     37       0.00000           0.285183            7.76023
     38       0.00000           0.296030            8.05537
     39       0.00000           0.336313            9.15154
     40       0.00000           0.361718            9.84285
     41       0.00000           0.370376           10.07844
     42       0.00000           0.380106           10.34321
     43       0.00000           0.393533           10.70858
     44       0.00000           0.422979           11.50984
     45       0.00000           0.434798           11.83146
     46       0.00000           0.447008           12.16370
     47       0.00000           0.481954           13.11464
     48       0.00000           0.525003           14.28606
     49       0.00000           0.534208           14.53653
     50       0.00000           0.545590           14.84625
     51       0.00000           0.602006           16.38141
     52       0.00000           0.630555           17.15828
     53       0.00000           0.688232           18.72775
     54       0.00000           0.725008           19.72846
     55       0.00000           0.747546           20.34176
     56       0.00000           0.756666           20.58993

  Highest occupied state (VBM) at    -12.13798339 eV
  | Occupation number:      2.00000000

  Lowest unoccupied state (CBM) at    -2.49832309 eV
  | Occupation number:      1.00000000

  Overall HOMO-LUMO gap:      9.63966031 eV.
  Calculating total energy contributions from superposition of free atom densities.

  Total energy components:
  | Sum of eigenvalues            :        -131.14197969 Ha       -3568.55483340 eV
  | XC energy correction          :         -27.73874929 Ha        -754.80977239 eV
  | XC potential correction       :          35.45879340 Ha         964.88286104 eV
  | Free-atom electrostatic energy:        -106.87381474 Ha       -2908.18446589 eV
  | Hartree energy correction     :           0.00000000 Ha           0.00000000 eV
  | van der Waals energy corr.    :           0.00000000 Ha           0.00000000 eV
  | Entropy correction            :          -0.00010367 Ha          -0.00282095 eV
  | ---------------------------
  | Total energy                  :        -230.29575032 Ha       -6266.66621064 eV
  | Total energy, T -> 0          :        -230.29585399 Ha       -6266.66903159 eV  <-- do not rely on this value for anything but (periodic) metals
  | Electronic free energy        :        -230.29595765 Ha       -6266.67185254 eV

  Derived energy quantities:
  | Kinetic energy                :         228.25951959 Ha        6211.25755328 eV
  | Electrostatic energy          :        -430.81652062 Ha      -11723.11399153 eV
  | Energy correction for multipole
  | error in Hartree potential    :           0.00000000 Ha           0.00000000 eV
  | Sum of eigenvalues per atom                           :        -356.85548334 eV
  | Total energy (T->0) per atom                          :        -626.66690316 eV  <-- do not rely on this value for anything but (periodic) metals
  | Electronic free energy per atom                       :        -626.66718525 eV
  Initialize hartree_potential_storage
  Max. number of atoms included in rho_multipole:           10

  End scf initialization - timings             :  max(cpu_time)    wall_clock(cpu1)
  | Time for scf. initialization               :        0.888 s           0.888 s
  | Boundary condition initialization          :        0.000 s           0.001 s
  | Integration                                :        0.605 s           0.605 s
  | Solution of K.-S. eqns.                    :        0.074 s           0.074 s
  | Grid partitioning                          :        0.099 s           0.098 s
  | Preloading free-atom quantities on grid    :        0.014 s           0.013 s
  | Free-atom superposition energy             :        0.033 s           0.033 s
  | Total energy evaluation                    :        0.001 s           0.001 s
------------------------------------------------------------

------------------------------------------------------------
          Begin self-consistency iteration #    1

  Date     :  20150727, Time     :  121057.500
------------------------------------------------------------
  Evaluating new KS density.
  Integration grid: deviation in total charge (<rho> - N_e) =  -3.232969E-13
  Pulay mixing of updated and previous charge densities.

  Evaluating partitioned Hartree potential by multipole expansion.
  | Analytical far-field extrapolation by fixed multipoles:
  | Hartree multipole sum: apparent total charge =  -0.295246E-06
  Summing up the Hartree potential.
  Time summed over all CPUs for potential: real work        1.147 s, elapsed        1.151 s
  | RMS charge density error from multipole expansion :   0.135192E-02

  Integrating Hamiltonian matrix: batch-based integration.
  Time summed over all CPUs for integration: real work        3.101 s, elapsed        3.161 s

  Updating Kohn-Sham eigenvalues, eigenvectors, occupation numbers, and Fermi level.
  Solving generalized eigenproblem
  Updating Kohn-Sham eigenvalues and eigenfunctions.
  Solving real generalised eigenvalue problem by standard LAPACK (fast)
  Determining occupation numbers for Kohn-Sham eigenstates.
  | Chemical potential (Fermi level) in eV                 : -.23168735E+01
  | Error in electron count due to remaining E_F inaccuracy: -.18705038E-10
  | Maximum occupation number of highest empty state:  0.00E+00

  Writing Kohn-Sham eigenvalues.

  State    Occupation    Eigenvalue [Ha]    Eigenvalue [eV]
      1       2.00000         -19.007123         -517.21014
      2       2.00000         -18.994757         -516.87363
      3       2.00000         -18.985986         -516.63495
      4       2.00000          -1.100204          -29.93807
      5       2.00000          -1.083575          -29.48559
      6       2.00000          -1.068670          -29.07998
      7       2.00000          -0.622567          -16.94091
      8       2.00000          -0.620962          -16.89724
      9       2.00000          -0.615254          -16.74192
     10       2.00000          -0.595899          -16.21524
     11       2.00000          -0.502422          -13.67160
     12       2.00000          -0.472868          -12.86740
     13       2.00000          -0.452760          -12.32023
     14       2.00000          -0.418330          -11.38333
     15       2.00000          -0.409558          -11.14464
     16       1.00000          -0.085144           -2.31687
     17       0.00000          -0.057032           -1.55191
     18       0.00000          -0.037226           -1.01298
     19       0.00000          -0.008141           -0.22152
     20       0.00000           0.006845            0.18625
     21       0.00000           0.038499            1.04761
     22       0.00000           0.065226            1.77489
     23       0.00000           0.077465            2.10793
     24       0.00000           0.090913            2.47386
     25       0.00000           0.104344            2.83933
     26       0.00000           0.109406            2.97709
     27       0.00000           0.117414            3.19499
     28       0.00000           0.128196            3.48840
     29       0.00000           0.146695            3.99179
     30       0.00000           0.157231            4.27849
     31       0.00000           0.167142            4.54816
     32       0.00000           0.184112            5.00994
     33       0.00000           0.205843            5.60127
     34       0.00000           0.223260            6.07520
     35       0.00000           0.247052            6.72264
     36       0.00000           0.256263            6.97328
     37       0.00000           0.290811            7.91338
     38       0.00000           0.300550            8.17838
     39       0.00000           0.343023            9.33413
     40       0.00000           0.368676           10.03219
     41       0.00000           0.377381           10.26906
     42       0.00000           0.387239           10.53732
     43       0.00000           0.401288           10.91959
     44       0.00000           0.429135           11.67737
     45       0.00000           0.441066           12.00201
     46       0.00000           0.453105           12.32961
     47       0.00000           0.490349           13.34307
     48       0.00000           0.533452           14.51597
     49       0.00000           0.541878           14.74524
     50       0.00000           0.554173           15.07981
     51       0.00000           0.611301           16.63434
     52       0.00000           0.640381           17.42566
     53       0.00000           0.697392           18.97700
     54       0.00000           0.734563           19.98847
     55       0.00000           0.756274           20.57926
     56       0.00000           0.765079           20.81885

  Highest occupied state (VBM) at    -11.14464461 eV
  | Occupation number:      2.00000000

  Lowest unoccupied state (CBM) at    -2.31687351 eV
  | Occupation number:      1.00000000

  Overall HOMO-LUMO gap:      8.82777111 eV.

  Total energy components:
  | Sum of eigenvalues            :        -129.98701432 Ha       -3537.12662668 eV
  | XC energy correction          :         -27.86464949 Ha        -758.23569109 eV
  | XC potential correction       :          35.62297746 Ha         969.35053675 eV
  | Free-atom electrostatic energy:        -106.87381474 Ha       -2908.18446589 eV
  | Hartree energy correction     :          -1.12836853 Ha         -30.70446997 eV
  | van der Waals energy corr.    :           0.00000000 Ha           0.00000000 eV
  | Entropy correction            :          -0.00010367 Ha          -0.00282095 eV
  | ---------------------------
  | Total energy                  :        -230.23086962 Ha       -6264.90071689 eV
  | Total energy, T -> 0          :        -230.23097328 Ha       -6264.90353784 eV  <-- do not rely on this value for anything but (periodic) metals
  | Electronic free energy        :        -230.23107695 Ha       -6264.90635878 eV

  Derived energy quantities:
  | Kinetic energy                :         229.04818900 Ha        6232.71833978 eV
  | Electrostatic energy          :        -431.41440913 Ha      -11739.38336557 eV
  | Energy correction for multipole
  | error in Hartree potential    :           0.00034850 Ha           0.00948313 eV
  | Sum of eigenvalues per atom                           :        -353.71266267 eV
  | Total energy (T->0) per atom                          :        -626.49035378 eV  <-- do not rely on this value for anything but (periodic) metals
  | Electronic free energy per atom                       :        -626.49063588 eV

  Self-consistency convergence accuracy:
  | Change of charge density      : 0.4843E+00
  | Change of sum of eigenvalues  : 0.3143E+02 eV
  | Change of total energy        : 0.1765E+01 eV

  End self-consistency iteration #     1       :  max(cpu_time)    wall_clock(cpu1)
  | Time for this iteration                    :        0.827 s           0.826 s
  | Charge density update                      :        0.258 s           0.257 s
  | Density mixing                             :        0.002 s           0.002 s
  | Hartree multipole update                   :        0.004 s           0.004 s
  | Hartree multipole summation                :        0.144 s           0.144 s
  | Integration                                :        0.396 s           0.396 s
  | Solution of K.-S. eqns.                    :        0.018 s           0.019 s
  | Total energy evaluation                    :        0.000 s           0.001 s
------------------------------------------------------------

------------------------------------------------------------
          Begin self-consistency iteration #    2

  Date     :  20150727, Time     :  121058.327
------------------------------------------------------------
  Evaluating new KS density.
  Integration grid: deviation in total charge (<rho> - N_e) =  -1.872280E-11
  Pulay mixing of updated and previous charge densities.

  Evaluating partitioned Hartree potential by multipole expansion.
  | Analytical far-field extrapolation by fixed multipoles:
  | Hartree multipole sum: apparent total charge =  -0.233443E-05
  Summing up the Hartree potential.
  Time summed over all CPUs for potential: real work        1.147 s, elapsed        1.151 s
  | RMS charge density error from multipole expansion :   0.560286E-02

  Integrating Hamiltonian matrix: batch-based integration.
  Time summed over all CPUs for integration: real work        3.100 s, elapsed        3.181 s

  Updating Kohn-Sham eigenvalues, eigenvectors, occupation numbers, and Fermi level.
  Solving generalized eigenproblem
  Updating Kohn-Sham eigenvalues and eigenfunctions.
  Solving real generalised eigenvalue problem by standard LAPACK (fast)
  Determining occupation numbers for Kohn-Sham eigenstates.
  | Chemical potential (Fermi level) in eV                 : -.18854292E+01
  | Error in electron count due to remaining E_F inaccuracy: 0.00000000E+00
  | Maximum occupation number of highest empty state:  0.00E+00

  Highest occupied state (VBM) at     -1.88542923 eV
  | Occupation number:      1.00000000

  Lowest unoccupied state (CBM) at    -1.88542923 eV
  | Occupation number:      1.00000000

  Overall HOMO-LUMO gap:      0.00000000 eV.

  Total energy components:
  | Sum of eigenvalues            :        -127.14825571 Ha       -3459.88007470 eV
  | XC energy correction          :         -28.19166066 Ha        -767.13411784 eV
  | XC potential correction       :          36.04817032 Ha         980.92062313 eV
  | Free-atom electrostatic energy:        -106.87381474 Ha       -2908.18446589 eV
  | Hartree energy correction     :          -3.99202237 Ha        -108.62845570 eV
  | van der Waals energy corr.    :           0.00000000 Ha           0.00000000 eV
  | Entropy correction            :          -0.00010367 Ha          -0.00282095 eV
  | ---------------------------
  | Total energy                  :        -230.15758316 Ha       -6262.90649099 eV
  | Total energy, T -> 0          :        -230.15768683 Ha       -6262.90931194 eV  <-- do not rely on this value for anything but (periodic) metals
  | Electronic free energy        :        -230.15779050 Ha       -6262.91213289 eV

  Derived energy quantities:
  | Kinetic energy                :         230.76104235 Ha        6279.32745088 eV
  | Electrostatic energy          :        -432.72696485 Ha      -11775.09982403 eV
  | Energy correction for multipole
  | error in Hartree potential    :           0.00081257 Ha           0.02211102 eV
  | Sum of eigenvalues per atom                           :        -345.98800747 eV
  | Total energy (T->0) per atom                          :        -626.29093119 eV  <-- do not rely on this value for anything but (periodic) metals
  | Electronic free energy per atom                       :        -626.29121329 eV

  Self-consistency convergence accuracy:
  | Change of charge density      : 0.3701E+00
  | Change of sum of eigenvalues  : 0.7725E+02 eV
  | Change of total energy        : 0.1994E+01 eV

  End self-consistency iteration #     2       :  max(cpu_time)    wall_clock(cpu1)
  | Time for this iteration                    :        0.825 s           0.824 s
  | Charge density update                      :        0.255 s           0.254 s
  | Density mixing                             :        0.003 s           0.003 s
  | Hartree multipole update                   :        0.003 s           0.004 s
  | Hartree multipole summation                :        0.144 s           0.145 s
  | Integration                                :        0.399 s           0.398 s
  | Solution of K.-S. eqns.                    :        0.018 s           0.018 s
  | Total energy evaluation                    :        0.000 s           0.001 s
------------------------------------------------------------

------------------------------------------------------------
          Begin self-consistency iteration #    3

  Date     :  20150727, Time     :  121059.152
------------------------------------------------------------
  Evaluating new KS density.
  Integration grid: deviation in total charge (<rho> - N_e) =  -7.105427E-15
  Pulay mixing of updated and previous charge densities.

  Evaluating partitioned Hartree potential by multipole expansion.
  | Analytical far-field extrapolation by fixed multipoles:
  | Hartree multipole sum: apparent total charge =  -0.271184E-05
  Summing up the Hartree potential.
  Time summed over all CPUs for potential: real work        1.147 s, elapsed        1.151 s
  | RMS charge density error from multipole expansion :   0.116358E-01

  Integrating Hamiltonian matrix: batch-based integration.
  Time summed over all CPUs for integration: real work        3.100 s, elapsed        3.166 s

  Updating Kohn-Sham eigenvalues, eigenvectors, occupation numbers, and Fermi level.
  Solving generalized eigenproblem
  Updating Kohn-Sham eigenvalues and eigenfunctions.
  Solving real generalised eigenvalue problem by standard LAPACK (fast)
  Determining occupation numbers for Kohn-Sham eigenstates.
  | Chemical potential (Fermi level) in eV                 : -.18980629E+01
  | Error in electron count due to remaining E_F inaccuracy: 0.14232171E-10
  | Maximum occupation number of highest empty state:  0.00E+00

  Highest occupied state (VBM) at     -1.89806289 eV
  | Occupation number:      1.00000000

  Lowest unoccupied state (CBM) at    -1.12995101 eV
  | Occupation number:      0.00000000

  Overall HOMO-LUMO gap:      0.76811188 eV.

  Total energy components:
  | Sum of eigenvalues            :        -127.43606586 Ha       -3467.71178726 eV
  | XC energy correction          :         -28.18514473 Ha        -766.95681052 eV
  | XC potential correction       :          36.03304141 Ha         980.50894452 eV
  | Free-atom electrostatic energy:        -106.87381474 Ha       -2908.18446589 eV
  | Hartree energy correction     :          -3.69623449 Ha        -100.57965781 eV
  | van der Waals energy corr.    :           0.00000000 Ha           0.00000000 eV
  | Entropy correction            :          -0.00010367 Ha          -0.00282095 eV
  | ---------------------------
  | Total energy                  :        -230.15821841 Ha       -6262.92377697 eV
  | Total energy, T -> 0          :        -230.15832208 Ha       -6262.92659792 eV  <-- do not rely on this value for anything but (periodic) metals
  | Electronic free energy        :        -230.15842575 Ha       -6262.92941886 eV

  Derived energy quantities:
  | Kinetic energy                :         229.70282534 Ha        6250.53190109 eV
  | Electrostatic energy          :        -431.67589902 Ha      -11746.49886754 eV
  | Energy correction for multipole
  | error in Hartree potential    :          -0.00172749 Ha          -0.04700735 eV
  | Sum of eigenvalues per atom                           :        -346.77117873 eV
  | Total energy (T->0) per atom                          :        -626.29265979 eV  <-- do not rely on this value for anything but (periodic) metals
  | Electronic free energy per atom                       :        -626.29294189 eV

  Self-consistency convergence accuracy:
  | Change of charge density      : 0.1757E+00
  | Change of sum of eigenvalues  : -.7832E+01 eV
  | Change of total energy        : -.1729E-01 eV

  End self-consistency iteration #     3       :  max(cpu_time)    wall_clock(cpu1)
  | Time for this iteration                    :        0.823 s           0.822 s
  | Charge density update                      :        0.253 s           0.253 s
  | Density mixing                             :        0.005 s           0.004 s
  | Hartree multipole update                   :        0.004 s           0.004 s
  | Hartree multipole summation                :        0.144 s           0.145 s
  | Integration                                :        0.397 s           0.397 s
  | Solution of K.-S. eqns.                    :        0.018 s           0.018 s
  | Total energy evaluation                    :        0.000 s           0.001 s
------------------------------------------------------------

------------------------------------------------------------
          Begin self-consistency iteration #    4

  Date     :  20150727, Time     :  121059.975
------------------------------------------------------------
  Evaluating new KS density.
  Integration grid: deviation in total charge (<rho> - N_e) =   1.422862E-11
  Pulay mixing of updated and previous charge densities.

  Evaluating partitioned Hartree potential by multipole expansion.
  | Analytical far-field extrapolation by fixed multipoles:
  | Hartree multipole sum: apparent total charge =  -0.301654E-05
  Summing up the Hartree potential.
  Time summed over all CPUs for potential: real work        1.146 s, elapsed        1.151 s
  | RMS charge density error from multipole expansion :   0.142443E-01

  Integrating Hamiltonian matrix: batch-based integration.
  Time summed over all CPUs for integration: real work        3.101 s, elapsed        3.150 s

  Updating Kohn-Sham eigenvalues, eigenvectors, occupation numbers, and Fermi level.
  Solving generalized eigenproblem
  Updating Kohn-Sham eigenvalues and eigenfunctions.
  Solving real generalised eigenvalue problem by standard LAPACK (fast)
  Determining occupation numbers for Kohn-Sham eigenstates.
  | Chemical potential (Fermi level) in eV                 : -.18337635E+01
  | Error in electron count due to remaining E_F inaccuracy: -.48489248E-08
  | Maximum occupation number of highest empty state:  0.00E+00

  Highest occupied state (VBM) at     -8.31775288 eV
  | Occupation number:      2.00000000

  Lowest unoccupied state (CBM) at    -1.83376350 eV
  | Occupation number:      1.00000000

  Overall HOMO-LUMO gap:      6.48398938 eV.

  Total energy components:
  | Sum of eigenvalues            :        -126.92714178 Ha       -3453.86325852 eV
  | XC energy correction          :         -28.25981814 Ha        -768.98877725 eV
  | XC potential correction       :          36.12847063 Ha         983.10570558 eV
  | Free-atom electrostatic energy:        -106.87381474 Ha       -2908.18446589 eV
  | Hartree energy correction     :          -4.22407072 Ha        -114.94281259 eV
  | van der Waals energy corr.    :           0.00000000 Ha           0.00000000 eV
  | Entropy correction            :          -0.00010367 Ha          -0.00282095 eV
  | ---------------------------
  | Total energy                  :        -230.15637476 Ha       -6262.87360867 eV
  | Total energy, T -> 0          :        -230.15647843 Ha       -6262.87642962 eV  <-- do not rely on this value for anything but (periodic) metals
  | Electronic free energy        :        -230.15658209 Ha       -6262.87925057 eV

  Derived energy quantities:
  | Kinetic energy                :         229.75290924 Ha        6251.89475336 eV
  | Electrostatic energy          :        -431.64946586 Ha      -11745.77958478 eV
  | Energy correction for multipole
  | error in Hartree potential    :          -0.00241280 Ha          -0.06565564 eV
  | Sum of eigenvalues per atom                           :        -345.38632585 eV
  | Total energy (T->0) per atom                          :        -626.28764296 eV  <-- do not rely on this value for anything but (periodic) metals
  | Electronic free energy per atom                       :        -626.28792506 eV

  Self-consistency convergence accuracy:
  | Change of charge density      : 0.7018E-01
  | Change of sum of eigenvalues  : 0.1385E+02 eV
  | Change of total energy        : 0.5017E-01 eV

  End self-consistency iteration #     4       :  max(cpu_time)    wall_clock(cpu1)
  | Time for this iteration                    :        0.822 s           0.822 s
  | Charge density update                      :        0.254 s           0.254 s
  | Density mixing                             :        0.005 s           0.005 s
  | Hartree multipole update                   :        0.004 s           0.004 s
  | Hartree multipole summation                :        0.145 s           0.144 s
  | Integration                                :        0.394 s           0.395 s
  | Solution of K.-S. eqns.                    :        0.018 s           0.018 s
  | Total energy evaluation                    :        0.001 s           0.000 s
------------------------------------------------------------

------------------------------------------------------------
          Begin self-consistency iteration #    5

  Date     :  20150727, Time     :  121100.797
------------------------------------------------------------
  Evaluating new KS density.
  Integration grid: deviation in total charge (<rho> - N_e) =  -4.848918E-09
  Pulay mixing of updated and previous charge densities.

  Evaluating partitioned Hartree potential by multipole expansion.
  | Analytical far-field extrapolation by fixed multipoles:
  | Hartree multipole sum: apparent total charge =  -0.312016E-05
  Summing up the Hartree potential.
  Time summed over all CPUs for potential: real work        1.159 s, elapsed        1.228 s
  | RMS charge density error from multipole expansion :   0.143846E-01

  Integrating Hamiltonian matrix: batch-based integration.
  Time summed over all CPUs for integration: real work        3.122 s, elapsed        3.239 s

  Updating Kohn-Sham eigenvalues, eigenvectors, occupation numbers, and Fermi level.
  Solving generalized eigenproblem
  Updating Kohn-Sham eigenvalues and eigenfunctions.
  Solving real generalised eigenvalue problem by standard LAPACK (fast)
  Determining occupation numbers for Kohn-Sham eigenstates.
  | Chemical potential (Fermi level) in eV                 : -.18426624E+01
  | Error in electron count due to remaining E_F inaccuracy: 0.31320724E-10
  | Maximum occupation number of highest empty state:  0.00E+00

  Highest occupied state (VBM) at     -1.84266244 eV
  | Occupation number:      1.00000000

  Lowest unoccupied state (CBM) at    -1.06254670 eV
  | Occupation number:      0.00000000

  Overall HOMO-LUMO gap:      0.78011574 eV.

  Total energy components:
  | Sum of eigenvalues            :        -126.92152133 Ha       -3453.71031816 eV
  | XC energy correction          :         -28.26084925 Ha        -769.01683524 eV
  | XC potential correction       :          36.12968291 Ha         983.13869344 eV
  | Free-atom electrostatic energy:        -106.87381474 Ha       -2908.18446589 eV
  | Hartree energy correction     :          -4.22982169 Ha        -115.09930434 eV
  | van der Waals energy corr.    :           0.00000000 Ha           0.00000000 eV
  | Entropy correction            :          -0.00010367 Ha          -0.00282095 eV
  | ---------------------------
  | Total energy                  :        -230.15632410 Ha       -6262.87223019 eV
  | Total energy, T -> 0          :        -230.15642777 Ha       -6262.87505114 eV  <-- do not rely on this value for anything but (periodic) metals
  | Electronic free energy        :        -230.15653144 Ha       -6262.87787209 eV

  Derived energy quantities:
  | Kinetic energy                :         229.77195570 Ha        6252.41303380 eV
  | Electrostatic energy          :        -431.66743055 Ha      -11746.26842875 eV
  | Energy correction for multipole
  | error in Hartree potential    :          -0.00257781 Ha          -0.07014590 eV
  | Sum of eigenvalues per atom                           :        -345.37103182 eV
  | Total energy (T->0) per atom                          :        -626.28750511 eV  <-- do not rely on this value for anything but (periodic) metals
  | Electronic free energy per atom                       :        -626.28778721 eV

  Self-consistency convergence accuracy:
  | Change of charge density      : 0.1136E-01
  | Change of sum of eigenvalues  : 0.1529E+00 eV
  | Change of total energy        : 0.1378E-02 eV

  End self-consistency iteration #     5       :  max(cpu_time)    wall_clock(cpu1)
  | Time for this iteration                    :        0.844 s           0.843 s
  | Charge density update                      :        0.254 s           0.254 s
  | Density mixing                             :        0.006 s           0.006 s
  | Hartree multipole update                   :        0.004 s           0.004 s
  | Hartree multipole summation                :        0.154 s           0.154 s
  | Integration                                :        0.405 s           0.406 s
  | Solution of K.-S. eqns.                    :        0.018 s           0.018 s
  | Total energy evaluation                    :        0.000 s           0.001 s
------------------------------------------------------------

------------------------------------------------------------
          Begin self-consistency iteration #    6

  Date     :  20150727, Time     :  121101.641
------------------------------------------------------------
  Evaluating new KS density.
  Integration grid: deviation in total charge (<rho> - N_e) =   3.132072E-11
  Pulay mixing of updated and previous charge densities.

  Evaluating partitioned Hartree potential by multipole expansion.
  | Analytical far-field extrapolation by fixed multipoles:
  | Hartree multipole sum: apparent total charge =  -0.315994E-05
  Summing up the Hartree potential.
  Time summed over all CPUs for potential: real work        1.146 s, elapsed        1.150 s
  | RMS charge density error from multipole expansion :   0.146148E-01

  Integrating Hamiltonian matrix: batch-based integration.
  Time summed over all CPUs for integration: real work        3.092 s, elapsed        3.148 s

  Updating Kohn-Sham eigenvalues, eigenvectors, occupation numbers, and Fermi level.
  Solving generalized eigenproblem
  Updating Kohn-Sham eigenvalues and eigenfunctions.
  Solving real generalised eigenvalue problem by standard LAPACK (fast)
  Determining occupation numbers for Kohn-Sham eigenstates.
  | Chemical potential (Fermi level) in eV                 : -.18549435E+01
  | Error in electron count due to remaining E_F inaccuracy: 0.00000000E+00
  | Maximum occupation number of highest empty state:  0.00E+00

  Highest occupied state (VBM) at     -1.85494354 eV
  | Occupation number:      1.00000000

  Lowest unoccupied state (CBM) at    -1.85494354 eV
  | Occupation number:      1.00000000

  Overall HOMO-LUMO gap:      0.00000000 eV.

  Total energy components:
  | Sum of eigenvalues            :        -126.94306117 Ha       -3454.29644713 eV
  | XC energy correction          :         -28.25978617 Ha        -768.98790726 eV
  | XC potential correction       :          36.12806964 Ha         983.09479425 eV
  | Free-atom electrostatic energy:        -106.87381474 Ha       -2908.18446589 eV
  | Hartree energy correction     :          -4.20774958 Ha        -114.49869158 eV
  | van der Waals energy corr.    :           0.00000000 Ha           0.00000000 eV
  | Entropy correction            :          -0.00010367 Ha          -0.00282095 eV
  | ---------------------------
  | Total energy                  :        -230.15634201 Ha       -6262.87271761 eV
  | Total energy, T -> 0          :        -230.15644568 Ha       -6262.87553856 eV  <-- do not rely on this value for anything but (periodic) metals
  | Electronic free energy        :        -230.15654935 Ha       -6262.87835951 eV

  Derived energy quantities:
  | Kinetic energy                :         229.75920665 Ha        6252.06611450 eV
  | Electrostatic energy          :        -431.65576249 Ha      -11745.95092485 eV
  | Energy correction for multipole
  | error in Hartree potential    :          -0.00278949 Ha          -0.07590585 eV
  | Sum of eigenvalues per atom                           :        -345.42964471 eV
  | Total energy (T->0) per atom                          :        -626.28755386 eV  <-- do not rely on this value for anything but (periodic) metals
  | Electronic free energy per atom                       :        -626.28783595 eV

  Self-consistency convergence accuracy:
  | Change of charge density      : 0.5664E-02
  | Change of sum of eigenvalues  : -.5861E+00 eV
  | Change of total energy        : -.4874E-03 eV

  End self-consistency iteration #     6       :  max(cpu_time)    wall_clock(cpu1)
  | Time for this iteration                    :        0.823 s           0.823 s
  | Charge density update                      :        0.254 s           0.253 s
  | Density mixing                             :        0.007 s           0.007 s
  | Hartree multipole update                   :        0.004 s           0.004 s
  | Hartree multipole summation                :        0.144 s           0.145 s
  | Integration                                :        0.395 s           0.394 s
  | Solution of K.-S. eqns.                    :        0.018 s           0.018 s
  | Total energy evaluation                    :        0.000 s           0.000 s
------------------------------------------------------------

------------------------------------------------------------
          Begin self-consistency iteration #    7

  Date     :  20150727, Time     :  121102.464
------------------------------------------------------------
  Evaluating new KS density.
  Integration grid: deviation in total charge (<rho> - N_e) =   0.000000E+00
  Pulay mixing of updated and previous charge densities.

  Evaluating partitioned Hartree potential by multipole expansion.
  | Analytical far-field extrapolation by fixed multipoles:
  | Hartree multipole sum: apparent total charge =  -0.311367E-05
  Summing up the Hartree potential.
  Time summed over all CPUs for potential: real work        1.147 s, elapsed        1.151 s
  | RMS charge density error from multipole expansion :   0.145888E-01

  Integrating Hamiltonian matrix: batch-based integration.
  Time summed over all CPUs for integration: real work        3.095 s, elapsed        3.154 s

  Updating Kohn-Sham eigenvalues, eigenvectors, occupation numbers, and Fermi level.
  Solving generalized eigenproblem
  Updating Kohn-Sham eigenvalues and eigenfunctions.
  Solving real generalised eigenvalue problem by standard LAPACK (fast)
  Determining occupation numbers for Kohn-Sham eigenstates.
  | Chemical potential (Fermi level) in eV                 : -.18626068E+01
  | Error in electron count due to remaining E_F inaccuracy: 0.42632564E-13
  | Maximum occupation number of highest empty state:  0.00E+00

  Highest occupied state (VBM) at     -1.86260678 eV
  | Occupation number:      1.00000000

  Lowest unoccupied state (CBM) at    -1.08787573 eV
  | Occupation number:      0.00000000

  Overall HOMO-LUMO gap:      0.77473105 eV.

  Total energy components:
  | Sum of eigenvalues            :        -126.96025503 Ha       -3454.76431590 eV
  | XC energy correction          :         -28.25796742 Ha        -768.93841679 eV
  | XC potential correction       :          36.12570097 Ha         983.03033929 eV
  | Free-atom electrostatic energy:        -106.87381474 Ha       -2908.18446589 eV
  | Hartree energy correction     :          -4.18999725 Ha        -114.01562617 eV
  | van der Waals energy corr.    :           0.00000000 Ha           0.00000000 eV
  | Entropy correction            :          -0.00010367 Ha          -0.00282095 eV
  | ---------------------------
  | Total energy                  :        -230.15633348 Ha       -6262.87248546 eV
  | Total energy, T -> 0          :        -230.15643715 Ha       -6262.87530641 eV  <-- do not rely on this value for anything but (periodic) metals
  | Electronic free energy        :        -230.15654082 Ha       -6262.87812735 eV

  Derived energy quantities:
  | Kinetic energy                :         229.77433129 Ha        6252.47767687 eV
  | Electrostatic energy          :        -431.67269734 Ha      -11746.41174554 eV
  | Energy correction for multipole
  | error in Hartree potential    :          -0.00285365 Ha          -0.07765169 eV
  | Sum of eigenvalues per atom                           :        -345.47643159 eV
  | Total energy (T->0) per atom                          :        -626.28753064 eV  <-- do not rely on this value for anything but (periodic) metals
  | Electronic free energy per atom                       :        -626.28781274 eV

  Self-consistency convergence accuracy:
  | Change of charge density      : 0.3723E-02
  | Change of sum of eigenvalues  : -.4679E+00 eV
  | Change of total energy        : 0.2322E-03 eV

  End self-consistency iteration #     7       :  max(cpu_time)    wall_clock(cpu1)
  | Time for this iteration                    :        0.824 s           0.825 s
  | Charge density update                      :        0.253 s           0.253 s
  | Density mixing                             :        0.008 s           0.008 s
  | Hartree multipole update                   :        0.004 s           0.004 s
  | Hartree multipole summation                :        0.145 s           0.145 s
  | Integration                                :        0.395 s           0.395 s
  | Solution of K.-S. eqns.                    :        0.018 s           0.018 s
  | Total energy evaluation                    :        0.000 s           0.001 s
------------------------------------------------------------

------------------------------------------------------------
          Begin self-consistency iteration #    8

  Date     :  20150727, Time     :  121103.289
------------------------------------------------------------
  Evaluating new KS density.
  Integration grid: deviation in total charge (<rho> - N_e) =   4.263256E-14
  Pulay mixing of updated and previous charge densities.

  Evaluating partitioned Hartree potential by multipole expansion.
  | Analytical far-field extrapolation by fixed multipoles:
  | Hartree multipole sum: apparent total charge =  -0.313881E-05
  Summing up the Hartree potential.
  Time summed over all CPUs for potential: real work        1.146 s, elapsed        1.150 s
  | RMS charge density error from multipole expansion :   0.146041E-01

  Integrating Hamiltonian matrix: batch-based integration.
  Time summed over all CPUs for integration: real work        3.088 s, elapsed        3.152 s

  Updating Kohn-Sham eigenvalues, eigenvectors, occupation numbers, and Fermi level.
  Solving generalized eigenproblem
  Updating Kohn-Sham eigenvalues and eigenfunctions.
  Solving real generalised eigenvalue problem by standard LAPACK (fast)
  Determining occupation numbers for Kohn-Sham eigenstates.
  | Chemical potential (Fermi level) in eV                 : -.18731471E+01
  | Error in electron count due to remaining E_F inaccuracy: -.97490656E-08
  | Maximum occupation number of highest empty state:  0.00E+00

  Highest occupied state (VBM) at     -8.34161834 eV
  | Occupation number:      2.00000000

  Lowest unoccupied state (CBM) at    -1.87314710 eV
  | Occupation number:      0.99999999

  Overall HOMO-LUMO gap:      6.46847124 eV.

  Total energy components:
  | Sum of eigenvalues            :        -126.98360983 Ha       -3455.39983229 eV
  | XC energy correction          :         -28.25608098 Ha        -768.88708402 eV
  | XC potential correction       :          36.12318894 Ha         982.96198354 eV
  | Free-atom electrostatic energy:        -106.87381474 Ha       -2908.18446589 eV
  | Hartree energy correction     :          -4.16601702 Ha        -113.36309087 eV
  | van der Waals energy corr.    :           0.00000000 Ha           0.00000000 eV
  | Entropy correction            :          -0.00010367 Ha          -0.00282095 eV
  | ---------------------------
  | Total energy                  :        -230.15633363 Ha       -6262.87248953 eV
  | Total energy, T -> 0          :        -230.15643730 Ha       -6262.87531048 eV  <-- do not rely on this value for anything but (periodic) metals
  | Electronic free energy        :        -230.15654097 Ha       -6262.87813143 eV

  Derived energy quantities:
  | Kinetic energy                :         229.78250359 Ha        6252.70005658 eV
  | Electrostatic energy          :        -431.68275624 Ha      -11746.68546208 eV
  | Energy correction for multipole
  | error in Hartree potential    :          -0.00294426 Ha          -0.08011727 eV
  | Sum of eigenvalues per atom                           :        -345.53998323 eV
  | Total energy (T->0) per atom                          :        -626.28753105 eV  <-- do not rely on this value for anything but (periodic) metals
  | Electronic free energy per atom                       :        -626.28781314 eV

  Self-consistency convergence accuracy:
  | Change of charge density      : 0.1869E-02
  | Change of sum of eigenvalues  : -.6355E+00 eV
  | Change of total energy        : -.4075E-05 eV

  End self-consistency iteration #     8       :  max(cpu_time)    wall_clock(cpu1)
  | Time for this iteration                    :        0.825 s           0.825 s
  | Charge density update                      :        0.253 s           0.253 s
  | Density mixing                             :        0.009 s           0.009 s
  | Hartree multipole update                   :        0.004 s           0.004 s
  | Hartree multipole summation                :        0.145 s           0.145 s
  | Integration                                :        0.395 s           0.395 s
  | Solution of K.-S. eqns.                    :        0.018 s           0.018 s
  | Total energy evaluation                    :        0.000 s           0.001 s
------------------------------------------------------------

------------------------------------------------------------
          Begin self-consistency iteration #    9

  Date     :  20150727, Time     :  121104.115
------------------------------------------------------------
  Evaluating new KS density.
  Integration grid: deviation in total charge (<rho> - N_e) =  -9.749048E-09
  Pulay mixing of updated and previous charge densities.

  Evaluating partitioned Hartree potential by multipole expansion.
  | Analytical far-field extrapolation by fixed multipoles:
  | Hartree multipole sum: apparent total charge =  -0.313282E-05
  Summing up the Hartree potential.
  Time summed over all CPUs for potential: real work        1.147 s, elapsed        1.151 s
  | RMS charge density error from multipole expansion :   0.145965E-01

  Integrating Hamiltonian matrix: batch-based integration.
  Time summed over all CPUs for integration: real work        3.098 s, elapsed        3.162 s

  Updating Kohn-Sham eigenvalues, eigenvectors, occupation numbers, and Fermi level.
  Solving generalized eigenproblem
  Updating Kohn-Sham eigenvalues and eigenfunctions.
  Solving real generalised eigenvalue problem by standard LAPACK (fast)
  Determining occupation numbers for Kohn-Sham eigenstates.
  | Chemical potential (Fermi level) in eV                 : -.18735435E+01
  | Error in electron count due to remaining E_F inaccuracy: -.42383448E-08
  | Maximum occupation number of highest empty state:  0.00E+00

  Highest occupied state (VBM) at     -8.34446734 eV
  | Occupation number:      2.00000000

  Lowest unoccupied state (CBM) at    -1.87354351 eV
  | Occupation number:      1.00000000

  Overall HOMO-LUMO gap:      6.47092382 eV.

  Total energy components:
  | Sum of eigenvalues            :        -126.98448421 Ha       -3455.42362533 eV
  | XC energy correction          :         -28.25601226 Ha        -768.88521396 eV
  | XC potential correction       :          36.12310481 Ha         982.95969436 eV
  | Free-atom electrostatic energy:        -106.87381474 Ha       -2908.18446589 eV
  | Hartree energy correction     :          -4.16512703 Ha        -113.33887304 eV
  | van der Waals energy corr.    :           0.00000000 Ha           0.00000000 eV
  | Entropy correction            :          -0.00010367 Ha          -0.00282095 eV
  | ---------------------------
  | Total energy                  :        -230.15633342 Ha       -6262.87248385 eV
  | Total energy, T -> 0          :        -230.15643709 Ha       -6262.87530480 eV  <-- do not rely on this value for anything but (periodic) metals
  | Electronic free energy        :        -230.15654076 Ha       -6262.87812575 eV

  Derived energy quantities:
  | Kinetic energy                :         229.78456911 Ha        6252.75626213 eV
  | Electrostatic energy          :        -431.68489027 Ha      -11746.74353203 eV
  | Energy correction for multipole
  | error in Hartree potential    :          -0.00294665 Ha          -0.08018230 eV
  | Sum of eigenvalues per atom                           :        -345.54236253 eV
  | Total energy (T->0) per atom                          :        -626.28753048 eV  <-- do not rely on this value for anything but (periodic) metals
  | Electronic free energy per atom                       :        -626.28781257 eV

  Self-consistency convergence accuracy:
  | Change of charge density      : 0.5195E-03
  | Change of sum of eigenvalues  : -.2379E-01 eV
  | Change of total energy        : 0.5683E-05 eV

  End self-consistency iteration #     9       :  max(cpu_time)    wall_clock(cpu1)
  | Time for this iteration                    :        0.830 s           0.829 s
  | Charge density update                      :        0.256 s           0.255 s
  | Density mixing                             :        0.010 s           0.010 s
  | Hartree multipole update                   :        0.004 s           0.004 s
  | Hartree multipole summation                :        0.144 s           0.144 s
  | Integration                                :        0.396 s           0.396 s
  | Solution of K.-S. eqns.                    :        0.019 s           0.018 s
  | Total energy evaluation                    :        0.000 s           0.001 s
------------------------------------------------------------

------------------------------------------------------------
          Begin self-consistency iteration #   10

  Date     :  20150727, Time     :  121104.944
------------------------------------------------------------
  Evaluating new KS density.
  Integration grid: deviation in total charge (<rho> - N_e) =  -4.238331E-09
  Pulay mixing of updated and previous charge densities.

  Evaluating partitioned Hartree potential by multipole expansion.
  | Analytical far-field extrapolation by fixed multipoles:
  | Hartree multipole sum: apparent total charge =  -0.311931E-05
  Summing up the Hartree potential.
  Time summed over all CPUs for potential: real work        1.147 s, elapsed        1.150 s
  | RMS charge density error from multipole expansion :   0.146080E-01

  Integrating Hamiltonian matrix: batch-based integration.
  Time summed over all CPUs for integration: real work        3.088 s, elapsed        3.145 s

  Updating Kohn-Sham eigenvalues, eigenvectors, occupation numbers, and Fermi level.
  Solving generalized eigenproblem
  Updating Kohn-Sham eigenvalues and eigenfunctions.
  Solving real generalised eigenvalue problem by standard LAPACK (fast)
  Determining occupation numbers for Kohn-Sham eigenstates.
  | Chemical potential (Fermi level) in eV                 : -.18732633E+01
  | Error in electron count due to remaining E_F inaccuracy: -.11059775E-08
  | Maximum occupation number of highest empty state:  0.00E+00

  Highest occupied state (VBM) at     -8.34063266 eV
  | Occupation number:      2.00000000

  Lowest unoccupied state (CBM) at    -1.87326333 eV
  | Occupation number:      1.00000000

  Overall HOMO-LUMO gap:      6.46736933 eV.

  Total energy components:
  | Sum of eigenvalues            :        -126.98265251 Ha       -3455.37378238 eV
  | XC energy correction          :         -28.25640136 Ha        -768.89580194 eV
  | XC potential correction       :          36.12360532 Ha         982.97331379 eV
  | Free-atom electrostatic energy:        -106.87381474 Ha       -2908.18446589 eV
  | Hartree energy correction     :          -4.16707037 Ha        -113.39175414 eV
  | van der Waals energy corr.    :           0.00000000 Ha           0.00000000 eV
  | Entropy correction            :          -0.00010367 Ha          -0.00282095 eV
  | ---------------------------
  | Total energy                  :        -230.15633367 Ha       -6262.87249056 eV
  | Total energy, T -> 0          :        -230.15643734 Ha       -6262.87531151 eV  <-- do not rely on this value for anything but (periodic) metals
  | Electronic free energy        :        -230.15654100 Ha       -6262.87813245 eV

  Derived energy quantities:
  | Kinetic energy                :         229.78496186 Ha        6252.76694941 eV
[...]
  | Atom     7: H
  |   Hirshfeld charge        :      0.11291057
  |   Free atom volume        :     10.44207651
  |   Hirshfeld volume        :     11.49278656
  |   Hirshfeld dipole vector :     -0.05625518      -0.04564205       0.00582992
  |   Hirshfeld dipole moment :      0.07267620
  |   Hirshfeld second moments:      0.00721621       0.02341269       0.00251878
  |                                  0.02341269       0.02534821       0.01284726
  |                                  0.00251878       0.01284726       0.03479467
  ----------------------------------------------------------------------
  | Atom     8: O
  |   Hirshfeld charge        :     -0.22199744
  |   Free atom volume        :     23.95238533
  |   Hirshfeld volume        :     23.66189632
  |   Hirshfeld dipole vector :      0.02895565      -0.00668444      -0.02605223
  |   Hirshfeld dipole moment :      0.03951999
  |   Hirshfeld second moments:     -0.03803421       0.00058137       0.04304872
  |                                  0.00058137       0.04122193       0.00393143
  |                                  0.04304872       0.00393143       0.03256750
  ----------------------------------------------------------------------
  | Atom     9: H
  |   Hirshfeld charge        :      0.06198747
  |   Free atom volume        :     10.44207651
  |   Hirshfeld volume        :     15.89667803
  |   Hirshfeld dipole vector :     -0.01122252       0.01186550      -0.00008585
  |   Hirshfeld dipole moment :      0.01633225
  |   Hirshfeld second moments:     -0.10573344      -0.02029754       0.01027769
  |                                 -0.02029754      -0.03380930      -0.01024609
  |                                  0.01027769      -0.01024609      -0.04859450
  ----------------------------------------------------------------------
  | Atom    10: H
  |   Hirshfeld charge        :      0.10050353
  |   Free atom volume        :     10.44207651
  |   Hirshfeld volume        :     12.62833746
  |   Hirshfeld dipole vector :     -0.02386816      -0.00717311      -0.06344558
  |   Hirshfeld dipole moment :      0.06816512
  |   Hirshfeld second moments:     -0.02120809       0.00227794       0.02796530
  |                                  0.00227794       0.02097781       0.00738547
  |                                  0.02796530       0.00738547       0.01198173
  ----------------------------------------------------------------------


  Total energy components:
  | Sum of eigenvalues            :        -126.98186249 Ha       -3455.35228479 eV
  | XC energy correction          :         -28.25645768 Ha        -768.89733465 eV
  | XC potential correction       :          36.12368251 Ha         982.97541443 eV
  | Free-atom electrostatic energy:        -106.87381474 Ha       -2908.18446589 eV
  | Hartree energy correction     :          -4.16788141 Ha        -113.41382356 eV
  | van der Waals energy corr.    :          -0.00091538 Ha          -0.02490888 eV
  | Entropy correction            :          -0.00010367 Ha          -0.00282095 eV
  | ---------------------------
  | Total energy                  :        -230.15724920 Ha       -6262.89740334 eV
  | Total energy, T -> 0          :        -230.15735286 Ha       -6262.90022429 eV  <-- do not rely on this value for anything but (periodic) metals
  | Electronic free energy        :        -230.15745653 Ha       -6262.90304523 eV

  Derived energy quantities:
  | Kinetic energy                :         229.78483117 Ha        6252.76339311 eV
  | Electrostatic energy          :        -431.68470729 Ha      -11746.73855291 eV
  | Energy correction for multipole
  | error in Hartree potential    :          -0.00296235 Ha          -0.08060959 eV
  | Sum of eigenvalues per atom                           :        -345.53522848 eV
  | Total energy (T->0) per atom                          :        -626.29002243 eV  <-- do not rely on this value for anything but (periodic) metals
  | Electronic free energy per atom                       :        -626.29030452 eV

  atomic forces [eV/Ang]:
  -----------------------
  atom #    1
   Hellmann-Feynman + Multipole  : -.207405E+01 -.748749E+01 -.763264E+01
   Pulay + GGA                   : 0.226995E+01 0.865744E+01 0.617891E+01
   Van der Waals               : 0.473694E-02 -.473096E-02 -.442576E-02
   ----------------------------------------------------------------
   Total forces(   1)            : 0.200638E+00 0.116522E+01 -.145815E+01
  atom #    2
   Hellmann-Feynman + Multipole  : 0.304845E+00 -.700139E+00 0.193506E+00
   Pulay + GGA                   : -.250763E-01 0.586993E-01 -.337640E-01
   Van der Waals               : -.331732E-03 0.114997E-02 -.438956E-02
   ----------------------------------------------------------------
   Total forces(   2)            : 0.279437E+00 -.640289E+00 0.155352E+00
  atom #    3
   Hellmann-Feynman + Multipole  : -.562330E+00 -.249313E+00 0.263335E-01
   Pulay + GGA                   : 0.141702E+00 0.687630E-01 0.238108E-01
   Van der Waals               : 0.503685E-02 -.297268E-02 -.105236E-02
   ----------------------------------------------------------------
   Total forces(   3)            : -.415591E+00 -.183523E+00 0.490919E-01
  atom #    4
   Hellmann-Feynman + Multipole  : 0.177604E-01 -.146176E+00 0.824091E+00
   Pulay + GGA                   : -.314926E-01 -.112403E-01 0.762010E-01
   Van der Waals               : 0.975691E-03 -.380763E-02 0.178674E-02
   ----------------------------------------------------------------
   Total forces(   4)            : -.127564E-01 -.161224E+00 0.902079E+00
  atom #    5
   Hellmann-Feynman + Multipole  : 0.741461E+01 -.574751E+01 -.776122E+01
   Pulay + GGA                   : -.760104E+01 0.424678E+01 0.658386E+01
   Van der Waals               : -.140010E-02 0.113267E-02 0.176551E-02
   ----------------------------------------------------------------
   Total forces(   5)            : -.187830E+00 -.149959E+01 -.117559E+01
  atom #    6
   Hellmann-Feynman + Multipole  : -.783838E-01 0.927759E+00 0.998021E+00
   Pulay + GGA                   : 0.431274E-01 0.114628E+00 0.106170E+00
   Van der Waals               : -.134426E-02 0.174165E-02 0.344829E-02
   ----------------------------------------------------------------
   Total forces(   6)            : -.366007E-01 0.104413E+01 0.110764E+01
  atom #    7
   Hellmann-Feynman + Multipole  : 0.226567E+00 0.470670E+00 0.275123E+00
   Pulay + GGA                   : -.131982E+00 -.707398E-01 0.446402E-01
   Van der Waals               : -.177047E-02 0.400304E-03 0.177318E-02
   ----------------------------------------------------------------
   Total forces(   7)            : 0.928138E-01 0.400330E+00 0.321536E+00
  atom #    8
   Hellmann-Feynman + Multipole  : -.633386E+01 -.698004E+01 0.899106E+01
   Pulay + GGA                   : 0.673803E+01 0.633339E+01 -.589446E+01
   Van der Waals               : -.187724E-02 0.153323E-02 0.143464E-02
   ----------------------------------------------------------------
   Total forces(   8)            : 0.402294E+00 -.645119E+00 0.309804E+01
  atom #    9
   Hellmann-Feynman + Multipole  : -.504954E-01 -.709656E-01 -.120290E+00
   Pulay + GGA                   : 0.827903E-01 0.122908E+00 0.661248E-01
   Van der Waals               : -.134096E-02 0.290583E-02 0.996047E-03
   ----------------------------------------------------------------
   Total forces(   9)            : 0.309539E-01 0.548486E-01 -.531687E-01
  atom #   10
   Hellmann-Feynman + Multipole  : -.306531E+00 0.437303E+00 -.280586E+01
   Pulay + GGA                   : -.378028E-01 0.220227E-01 -.140835E+00
   Van der Waals               : -.268472E-02 0.264762E-02 -.133672E-02
   ----------------------------------------------------------------
   Total forces(  10)            : -.347018E+00 0.461973E+00 -.294803E+01
  Timings for vdw_correction_hirshfeld (Tkatchenko-Scheffler 2009):
  | CPU time:        2.100 s, Wall clock time:        2.102 s.
  Removing unitary transformations (pure translations, rotations) from forces on atoms.
  Atomic forces before filtering:
  | Net force on center of mass :  0.633952E-02 -.323874E-02 -.120938E-02 eV/A
  | Net torque on center of mass:  0.256351E-01 -.392208E-02 -.770437E-02 eV
  Atomic forces after filtering:
  | Net force on center of mass :  0.133805E-15 0.892031E-16 -.356812E-15 eV/A
  | Net torque on center of mass:  -.755268E-15 -.188817E-15 0.377634E-15 eV
 
  Energy and forces in a compact form:
  | Total energy uncorrected      :         -0.626289740333731E+04 eV
  | Total energy corrected        :         -0.626290022428523E+04 eV  <-- do not rely on this value for anything but (periodic) metals
  | Electronic free energy        :         -0.626290304523315E+04 eV
  Total atomic forces (unitary forces cleaned) [eV/Ang]:
  |   1          0.200249707022141E+00          0.116534649269630E+01         -0.145754322570987E+01
  |   2          0.278715379050133E+00         -0.640604660509122E+00          0.155377505679773E+00
  |   3         -0.416070038637287E+00         -0.183024143306531E+00          0.494871461763241E-01
  |   4         -0.130678858419054E-01         -0.160580974588185E+00          0.902776062152336E+00
  |   5         -0.188010874846760E+00         -0.149801810924627E+01         -0.117475189689299E+01
  |   6         -0.370146505660024E-01          0.104615714645226E+01          0.110799072263288E+01
  |   7          0.928087674279141E-01          0.401809538164726E+00          0.322722247577050E+00
  |   8          0.401129618682723E+00         -0.645964588677959E+00          0.309728092279288E+01
  |   9          0.295246770677192E-01          0.544007182732259E-01         -0.544699379138993E-01
  |  10         -0.348264699358675E+00          0.460478580741554E+00         -0.294886954649448E+01
 
  ------------------------------------ 
  Start decomposition of the XC Energy 
  ------------------------------------ 
  Hartree-Fock part   :          0.000000000 Ha              0.000000000 eV
  ------------------------------------ 
  X Energy            :        -27.250938610 Ha           -741.535768500 eV
  C Energy GGA        :         -1.005519074 Ha            -27.361566151 eV
  Total XC Energy     :        -28.256457684 Ha           -768.897334651 eV
  LDA X and C from self-consistent density 
  X Energy LDA        :        -24.571352521 Ha           -668.620521121 eV
  C Energy LDA        :         -2.019470114 Ha            -54.952577752 eV
  ------------------------------------ 
  End decomposition of the XC Energy 
  ------------------------------------ 
  Performing Hirshfeld analysis of fragment charges and moments.
  ----------------------------------------------------------------------
  | Atom     1: O
  |   Hirshfeld charge        :     -0.14753189
  |   Free atom volume        :     23.95238533
  |   Hirshfeld volume        :     22.93479803
  |   Hirshfeld dipole vector :     -0.01105740       0.02304483       0.02689811
  |   Hirshfeld dipole moment :      0.03710578
  |   Hirshfeld second moments:      0.05872213      -0.00893529      -0.00435827
  |                                 -0.00893529       0.01740771      -0.02974252
  |                                 -0.00435827      -0.02974252       0.03458945
  ----------------------------------------------------------------------
  | Atom     2: H
  |   Hirshfeld charge        :      0.09466288
  |   Free atom volume        :     10.44207651
  |   Hirshfeld volume        :     11.56060179
  |   Hirshfeld dipole vector :     -0.02049125       0.00152219      -0.00206148
  |   Hirshfeld dipole moment :      0.02065086
  |   Hirshfeld second moments:      0.00200209       0.00296994       0.00605131
  |                                  0.00296994       0.00337036      -0.00073646
  |                                  0.00605131      -0.00073646       0.02822285
  ----------------------------------------------------------------------
  | Atom     3: H
  |   Hirshfeld charge        :      0.05517397
  |   Free atom volume        :     10.44207651
  |   Hirshfeld volume        :     16.83647059
  |   Hirshfeld dipole vector :     -0.03704738      -0.02568650       0.00338292
  |   Hirshfeld dipole moment :      0.04520783
  |   Hirshfeld second moments:     -0.11359866      -0.04353416      -0.00704252
  |                                 -0.04353416      -0.08179245      -0.01348165
  |                                 -0.00704252      -0.01348165      -0.05403975
  ----------------------------------------------------------------------
  | Atom     4: H
  |   Hirshfeld charge        :      0.09288859
  |   Free atom volume        :     10.44207651
  |   Hirshfeld volume        :     10.96906000
  |   Hirshfeld dipole vector :     -0.02342044      -0.00687577       0.01337617
  |   Hirshfeld dipole moment :      0.02783371
  |   Hirshfeld second moments:      0.02832677       0.00473751       0.00497076
  |                                  0.00473751       0.03083748      -0.00430836
  |                                  0.00497076      -0.00430836       0.00737163
  ----------------------------------------------------------------------
  | Atom     5: O
  |   Hirshfeld charge        :     -0.23524541
  |   Free atom volume        :     23.95238533
  |   Hirshfeld volume        :     23.21686532
  |   Hirshfeld dipole vector :     -0.02838370       0.01557882      -0.00569571
  |   Hirshfeld dipole moment :      0.03287515
  |   Hirshfeld second moments:     -0.00225693       0.05404628      -0.01207296
  |                                  0.05404628       0.00990483       0.01948971
  |                                 -0.01207296       0.01948971       0.04195733
  ----------------------------------------------------------------------
  | Atom     6: H
  |   Hirshfeld charge        :      0.08667002
  |   Free atom volume        :     10.44207651
  |   Hirshfeld volume        :     13.64225582
  |   Hirshfeld dipole vector :      0.00758088       0.02692356       0.03694241
  |   Hirshfeld dipole moment :      0.04633669
  |   Hirshfeld second moments:     -0.02923914       0.01433054       0.00005403
  |                                  0.01433054      -0.04106106       0.00778088
  |                                  0.00005403       0.00778088       0.01495053
  ----------------------------------------------------------------------
  | Atom     7: H
  |   Hirshfeld charge        :      0.11291057
  |   Free atom volume        :     10.44207651
  |   Hirshfeld volume        :     11.49278656
  |   Hirshfeld dipole vector :     -0.05625518      -0.04564205       0.00582992
  |   Hirshfeld dipole moment :      0.07267620
  |   Hirshfeld second moments:      0.00721621       0.02341269       0.00251878
  |                                  0.02341269       0.02534821       0.01284726
  |                                  0.00251878       0.01284726       0.03479467
  ----------------------------------------------------------------------
  | Atom     8: O
  |   Hirshfeld charge        :     -0.22199744
  |   Free atom volume        :     23.95238533
  |   Hirshfeld volume        :     23.66189632
  |   Hirshfeld dipole vector :      0.02895565      -0.00668444      -0.02605223
  |   Hirshfeld dipole moment :      0.03951999
  |   Hirshfeld second moments:     -0.03803421       0.00058137       0.04304872
  |                                  0.00058137       0.04122193       0.00393143
  |                                  0.04304872       0.00393143       0.03256750
  ----------------------------------------------------------------------
  | Atom     9: H
  |   Hirshfeld charge        :      0.06198747
  |   Free atom volume        :     10.44207651
  |   Hirshfeld volume        :     15.89667803
  |   Hirshfeld dipole vector :     -0.01122252       0.01186550      -0.00008585
  |   Hirshfeld dipole moment :      0.01633225
  |   Hirshfeld second moments:     -0.10573344      -0.02029754       0.01027769
  |                                 -0.02029754      -0.03380930      -0.01024609
  |                                  0.01027769      -0.01024609      -0.04859450
  ----------------------------------------------------------------------
  | Atom    10: H
  |   Hirshfeld charge        :      0.10050353
  |   Free atom volume        :     10.44207651
  |   Hirshfeld volume        :     12.62833746
  |   Hirshfeld dipole vector :     -0.02386816      -0.00717311      -0.06344558
  |   Hirshfeld dipole moment :      0.06816512
  |   Hirshfeld second moments:     -0.02120809       0.00227794       0.02796530
  |                                  0.00227794       0.02097781       0.00738547
  |                                  0.02796530       0.00738547       0.01198173
  ----------------------------------------------------------------------


------------------------------------------------------------------------------
  Final output of selected total energy values:

  The following output summarizes some interesting total energy values
  at the end of a run (AFTER all relaxation, molecular dynamics, etc.).

  | Total energy of the DFT / Hartree-Fock s.c.f. calculation      :          -6262.897403337 eV
  | Final zero-broadening corrected energy (caution - metals only) :          -6262.900224285 eV
  | For reference only, the value of 1 Hartree used in FHI-aims is :             27.211384500 eV

  Before relying on these values, please be sure to understand exactly which
  total energy value is referred to by a given number. Different objects may
  all carry the same name 'total energy'. Definitions:

  Total energy of the DFT / Hartree-Fock s.c.f. calculation:
  | Note that this energy does not include ANY quantities calculated after the
  | s.c.f. cycle, in particular not ANY RPA, MP2, etc. many-body perturbation terms.

  Final zero-broadening corrected energy:
  | For metallic systems only, a broadening of the occupation numbers at the Fermi
  | level can be extrapolated back to zero broadening by an electron-gas inspired
  | formula. For all systems that are not real metals, this value can be
  | meaningless and should be avoided.

------------------------------------------------------------------------------

------------------------------------------------------------
          Leaving FHI-aims.
          Date     :  20150727, Time     :  121112.334

          Computational steps:
          | Number of self-consistency cycles          :           16

          Detailed time accounting                     :  max(cpu_time)    wall_clock(cpu1)
          | Total time                                 :       16.238 s          16.274 s
          | Preparation time                           :        0.173 s           0.512 s
          | Grid partitioning                          :        0.099 s           0.098 s
          | Preloading free-atom quantities on grid    :        0.014 s           0.013 s
          | Free-atom superposition energy             :        0.033 s           0.033 s
          | Total time for integrations                :        6.932 s           6.930 s
          | Total time for solution of K.-S. equations :        0.364 s           0.365 s
          | Total time for density & force components  :        5.103 s           5.096 s
          | Total time for mixing                      :        0.135 s           0.131 s
          | Total time for Hartree multipole update    :        0.061 s           0.064 s
          | Total time for Hartree multipole sum       :        2.796 s           2.799 s
          | Total time for total energy evaluation     :        0.006 s           0.017 s
          | Total time for scaled ZORA corrections     :        0.000 s           0.000 s
          | Total time for TS (2009) vdW correction    :        0.028 s           0.029 s

          Have a nice day.
------------------------------------------------------------
