  MPI-parallelism will be employed.
------------------------------------------------------------
          Invoking FHI-aims ...
          Version 081213
          Compiled on 2013/08/29 at 17:41:06 on host generoso.

          When using FHI-aims, please cite the following reference:

          Volker Blum, Ralf Gehrke, Felix Hanke, Paula Havu,
          Ville Havu, Xinguo Ren, Karsten Reuter, and Matthias Scheffler,
          'Ab Initio Molecular Simulations with Numeric Atom-Centered Orbitals: FHI-aims',
          Computer Physics Communications 180, 2175-2196 (2009)

          For any questions about FHI-aims, please visit the aimsclub website
          with its forums and wiki. Contributions to both the forums and the
          wiki are warmly encouraged - they are for you, and everyone is welcome there.

------------------------------------------------------------

  Date     :  20150727, Time     :  123400.702
  Time zero on CPU 1             :   0.469920000000000E-01  s.
  Internal wall clock time zero  :           207232440.702  s.

  Using        8 parallel tasks.
  Task        0 on host gen59 reporting.
  Task        1 on host gen59 reporting.
  Task        2 on host gen59 reporting.
  Task        3 on host gen59 reporting.
  Task        4 on host gen59 reporting.
  Task        5 on host gen59 reporting.
  Task        6 on host gen59 reporting.
  Task        7 on host gen59 reporting.

  Performing system and environment tests:
  | Environment variable OMP_NUM_THREADS correctly set to 1.
  | Checking for scalapack...
  | No scalapack compiled in.

  Obtaining array dimensions for all initial allocations:
  
  -----------------------------------------------------------------------
  Parsing control.in (first pass over file, find array dimensions only).
  The contents of control.in will be repeated verbatim below
  unless switched off by setting 'verbatim_writeout .false.' .
  in the first line of control.in .
  -----------------------------------------------------------------------
  
  #########################################################################################
  #
  #  Volker Blum, FHI 2008 : Test run input file control.in
  #
  #########################################################################################
  #
  #  Physical model
  #
    xc                 rpbe
    spin               none
    relativistic       atomic_zora scalar
    charge             0.
   vdw_correction_hirshfeld
  #
  #  SCF convergence
  #
    occupation_type    gaussian 0.01
    mixer              pulay
      n_max_pulay        10
      charge_mix_param   0.1
    sc_accuracy_rho    5E-5
    sc_accuracy_eev    5E-3
    sc_accuracy_etot   5E-6
    sc_iter_limit      3000
  #
  #  Eigenvalue solver
  #
    KS_method          lapack
      empty_states       8
      basis_threshold    0.e-5
  #
  #  Efficiency
  #
  #   all previous settings are now default, except stratmann still
  #   undecided. Continue to handle stratmann with care, if at all.
  #
  #  partition_type stratmann
    partition_type rho_r2
  #  hartree_partition_type stratmann
  #
  #  Oprions for large clusters (100's of atoms: memory saving / better scaling)
  #
  # for periodic systems:
  #
    density_update_method orbital
    packed_matrix_format none
  #  k_grid 6 6 6
  #  output k_eigenvalue 1
  #  distributed_spline_storage .true.
  #
  #  Relaxation
  #
  #  relax_geometry   bfgs 5.e-3
    sc_accuracy_forces 5.E-4
    final_forces_cleaned .true.
  #
  #  Output options
  #
  #  output mulliken
    output Hirshfeld
  #  output dipole
  
  #harmonic_length_scale 0.001
  
  ################################################################################
  #
  #  FHI-aims code project
  #  VB, Fritz-Haber Institut, 2007
  #
  #  Suggested "safe" defaults for H atom (to be pasted into control.in file)
  #  Basis constructed for a non-relativistic H2 molecule using the
  #  PW-LDA functional.
  #
  ################################################################################
    species        H
  #     global species definitions
      nucleus             1
      cut_pot             4.0  2.0  1.0
      cut_free_atom       finite 8.0
      logarithmic         0.00010000 100.00  1.0123
      basis_dep_cutoff    1d-4  # 1d-4 is safe default - please check 5d-4 if you wish!
      radial_base         24 7.0
      radial_multiplier   2
      angular_grids       specified
        division   0.2783  110
        division   0.3822  194
        division   0.5626  302
  #      division   0.5922  434
  #      division   0.6227  590
  #      division   0.7206  770
        outer_grid  302
      l_hartree           4
  ################################################################################
  #
  #  Definition of "minimal" basis
  #
  ################################################################################
  #     valence basis states
      valence      1  s   1.
  #     ion occupancy
      ion_occ      1  s   0.5
  ################################################################################
  #
  #  Suggested additional basis functions. For production calculations,
  #  uncomment them one after another (the most important basis functions are
  #  listed first).
  #
  ################################################################################
  #  "First tier" - improvements: -1014.90 meV to -62.69 meV
       hydro 2 s 2.1
       hydro 2 p 3.5
  #  "Second tier" - improvements: -12.89 meV to -1.83 meV
       hydro 1 s 0.85
       hydro 2 p 3.7
       hydro 2 s 1.2
       hydro 3 d 7
  #  "Third tier" - improvements: -0.25 meV to -0.12 meV
  #     hydro 4 f 11.2
  #     hydro 3 p 4.8
  #     hydro 4 d 9
  #     hydro 3 s 3.2
  
  ################################################################################
  #
  #  FHI-aims code project
  #  VB, Fritz-Haber Institut, 2007
  #
  #  Suggested "safe" defaults for O atom (to be pasted into control.in file)
  #  All values have been tested for a non-relativistic, non-spinpolarized O2
  #  molecule using the PW-LDA functional. Validity for PBE is expected.
  #
  #  Constructed for dimers: 1.0 A, 1.208 A, 1.5 A, 2.0 A, 3.0 A
  #
  ################################################################################
    species        O
  #     global species definitions
      nucleus             8
      mass                15.9994
      l_hartree           4
      cut_pot             4.0  2.0  1.0
      cut_free_atom       finite 8.0
      basis_dep_cutoff    1d-4  # 1d-4 is safe default - please check 5d-4 if you wish!
      logarithmic         0.00010000 100.00  1.0123
      radial_base         36 7.0
      radial_multiplier   2
       angular_grids specified
        division   0.4087  110
        division   0.5181  194
        division   0.6184  302
  #      division   0.7315  434
  #      division   0.7934  590
  #      division   0.9656  770
  #      division   1.4041  974
  #      outer_grid 974
        outer_grid 302
  ################################################################################
  #
  #  Definition of "minimal" basis
  #
  ################################################################################
  #     valence basis states
      valence      2  s   2.
      valence      2  p   4.
  #     ion occupancy
      ion_occ      2  s   1.
      ion_occ      2  p   3.
  ################################################################################
  #
  #  Suggested additional basis functions. For production calculations,
  #  uncomment them one after another (the most important basis functions are
  #  listed first).
  #
  ################################################################################
  #  "First tier" - improvements: -699.05 meV to -159.38 meV
       hydro 2 p 1.8
       hydro 3 d 7.6
       hydro 3 s 6.4
  #  "Second tier" - improvements: -49.91 meV to -5.39 meV
       hydro 4 f 11.6
       hydro 3 p 6.2
       hydro 3 d 5.6
       hydro 5 g 17.6
       hydro 1 s 0.75
  #  "Third tier" - improvements: -2.83 meV to -0.50 meV
  #     ionic 2 p auto
  #     hydro 4 f 10.8
  #     hydro 4 d 4.7
  #     hydro 2 s 6.8
  #  "Fourth tier" - improvements: -0.40 meV to -0.12 meV
  #     hydro 3 p 5
  #     hydro 3 s 3.3
  #     hydro 5 g 15.6
  #     hydro 4 f 17.6
  #     hydro 4 d 14
  # Further basis functions - -0.08 meV and below
  #     hydro 3 s 2.1
  #     hydro 4 d 11.6
  #     hydro 3 p 16
  #     hydro 2 s 17.2
  
  
  -----------------------------------------------------------------------
  Completed first pass over input file control.in .
  -----------------------------------------------------------------------
  
  
  -----------------------------------------------------------------------
  Parsing geometry.in (first pass over file, find array dimensions only).
  The contents of geometry.in will be repeated verbatim below
  unless switched off by setting 'verbatim_writeout .false.' .
  in the first line of geometry.in .
  -----------------------------------------------------------------------
  
  atom      -4.053030000      0.065001000     -1.525160000  O
  atom      -4.566710000      0.974813000     -1.912820000  H
  atom      -3.067820000      0.330172000     -1.477310000  H
  atom      -4.370360000     -0.049164000     -0.572274000  H
  atom      -5.293160000      2.192130000     -2.328800000  O
  atom      -4.829300000      2.988660000     -1.973850000  H
  atom      -5.428570000      2.328640000     -3.235170000  H
  atom      -1.645860000      0.870179000     -1.502250000  O
  atom      -1.568890000      1.501730000     -0.721051000  H
  atom      -0.824432000      0.282220000     -1.377720000  H
  atom      -3.818880000      2.024990000      2.187990000  O
  atom      -3.690880000      1.961360000      3.202150000  H
  atom      -4.546490000      2.751300000      2.045370000  H
  atom      -1.975360000      2.858040000      0.453140000  O
  atom      -1.223550000      3.375850000      0.786238000  H
  atom      -2.537520000      2.567960000      1.156120000  H
  atom      -4.066610000      4.258280000     -0.900064000  O
  atom      -3.224110000      3.876870000     -0.569443000  H
  atom      -3.737450000      5.116530000     -1.322720000  H
  
  -----------------------------------------------------------------------
  Completed first pass over input file geometry.in .
  -----------------------------------------------------------------------
  
 
  Basic array size parameters: 
  | Number of species                 :        2
  | Number of atoms                   :       19
  | Max. basis fn. angular momentum   :        4
  | Max. atomic/ionic basis occupied n:        2
  | Max. number of basis fn. types    :        2
  | Max. radial fns per species/type  :        8
  | Max. logarithmic grid size        :     1301
  | Max. radial integration grid size :       73
  | Max. angular integration grid size:      302
  | Max. angular grid division number :        8
  | Radial grid for Hartree potential :     1301
  | Number of spin channels           :        1

------------------------------------------------------------
          Reading file control.in.
------------------------------------------------------------
  XC: Using RPBE gradient-corrected functionals.
  Spin treatment: No spin polarisation.
  Scalar relativistic treatment of kinetic energy: on-site free-atom approximation to ZORA.
  Charge =   0.000000E+00: Neutral system requested explicitly.
  Using non-empirical van der Waals correction (Hirshfeld partitioning):
  Occupation type: Gaussian broadening, width =   0.100000E-01 eV.
  Using pulay charge density mixing.
  Pulay mixing - number of memorized iterations:   10
  Charge density mixing - mixing parameter:     0.1000
  Convergence accuracy of self-consistent charge density: 0.5000E-04
  Convergence accuracy of sum of eigenvalues: 0.5000E-02
  Convergence accuracy of total energy: 0.5000E-05
  Maximum number of s.-c. iterations  :  3000
  Kohn-Sham eigenvalues and eigenfunctions calculated by lapack diagonalisation (D&C).
  Number of empty states per atom:        8
  Threshold for basis singularities: 0.0000E+00
  Partition function in integrals calculations: rho / r^2
 Using packed matrix format           0
  Convergence accuracy of forces: 0.5000E-03
  Cleaning forces before final output.
  Hirshfeld charge analysis will be performed.
 
  Reading configuration options for species H                   .
  | Found nuclear charge :   1.0000
  | Found cutoff potl. onset [A], width [A], scale factor :    4.00000    2.00000    1.00000
  | Found cutoff specification for free atom: Cutoff potential begins at    8.00000 A.
  | Found logarithmic grid data [bohr] : 0.1000E-03 0.1000E+03 0.1012E+01
  | Threshold for basis-dependent cutoff potential is   0.100000E-03
  | Found data for basic radial integration grid :    24 points, outermost radius =    7.000 A
  | Found multiplier for basic radial grid :   2
  | Found angular grid specification: user-specified.
  | Specified grid contains     4 separate shells.
  | Check grid settings after all constraints further below.
  | Found l_max for Hartree potential  :   4
  | Found free-atom valence shell :  1 s   1.000
  | No ionic wave fns used. Skipping ion_occ.
  | Found hydrogenic basis function :  2 s   2.100
  | Found hydrogenic basis function :  2 p   3.500
  | Found hydrogenic basis function :  1 s   0.850
  | Found hydrogenic basis function :  2 p   3.700
  | Found hydrogenic basis function :  2 s   1.200
  | Found hydrogenic basis function :  3 d   7.000
  Species H                   : Missing cutoff potential type.
  Defaulting to exp(1/x)/(1-x)^2 type cutoff potential.
  Species H : On-site basis accuracy parameter (for Gram-Schmidt orthonormalisation) not specified.
  Using default value basis_acc =  0.1000000E-03.
  Species H                   : Using default innermost maximum threshold i_radial=  2 for radial functions.
  Species H                   : Basic radial grid will be enhanced according to radial_multiplier =   2, to contain    49 grid points.
 
  Reading configuration options for species O                   .
  | Found nuclear charge :   8.0000
  | Found atomic mass :    15.9994000000000      amu
  | Found l_max for Hartree potential  :   4
  | Found cutoff potl. onset [A], width [A], scale factor :    4.00000    2.00000    1.00000
  | Found cutoff specification for free atom: Cutoff potential begins at    8.00000 A.
  | Threshold for basis-dependent cutoff potential is   0.100000E-03
  | Found logarithmic grid data [bohr] : 0.1000E-03 0.1000E+03 0.1012E+01
  | Found data for basic radial integration grid :    36 points, outermost radius =    7.000 A
  | Found multiplier for basic radial grid :   2
  | Found angular grid specification: user-specified.
  | Specified grid contains     4 separate shells.
  | Check grid settings after all constraints further below.
  | Found free-atom valence shell :  2 s   2.000
  | Found free-atom valence shell :  2 p   4.000
  | No ionic wave fns used. Skipping ion_occ.
  | No ionic wave fns used. Skipping ion_occ.
  | Found hydrogenic basis function :  2 p   1.800
  | Found hydrogenic basis function :  3 d   7.600
  | Found hydrogenic basis function :  3 s   6.400
  | Found hydrogenic basis function :  4 f  11.600
  | Found hydrogenic basis function :  3 p   6.200
  | Found hydrogenic basis function :  3 d   5.600
  | Found hydrogenic basis function :  5 g  17.600
  | Found hydrogenic basis function :  1 s   0.750
  Species O                   : Missing cutoff potential type.
  Defaulting to exp(1/x)/(1-x)^2 type cutoff potential.
  Species O : On-site basis accuracy parameter (for Gram-Schmidt orthonormalisation) not specified.
  Using default value basis_acc =  0.1000000E-03.
  Species O                   : Using default innermost maximum threshold i_radial=  2 for radial functions.
  Species O                   : Basic radial grid will be enhanced according to radial_multiplier =   2, to contain    73 grid points.
 
  Finished reading input file 'control.in'. Consistency checks are next.
 
  Target number of points in a grid batch is not set. Defaulting to  100
  Method for grid partitioning is not set. Defaulting to parallel hash+maxmin partitioning.
  Batch size limit is not set. Defaulting to    200
  By default, will store active basis functions for each batch.
  If in need of memory, prune_basis_once .false. can be used to disable this option.
  communication_type for Hartree potential was not specified.
  Defaulting to calc_hartree .
  Pulay mixer: Number of initial linear mixing iterations not set.
  Defaulting to    0 iterations.
  Work space size for distributed Hartree potential not set.
  Defaulting to   0.200000E+03 MB.
  Algorithm-dependent basis array size parameters:
  | n_max_pulay                         :       10
  Geometry relaxation not requested: no relaxation will be performed.
  Handling of forces: Unphysical translation and rotation will be removed from forces.
  No accuracy limit for integral partition fn. given. Defaulting to 0.1000E-14.
  No threshold value for u(r) in integrations given. Defaulting to 0.1000E-05.
  No accuracy for occupation numbers given. Defaulting to 0.1000E-07.
  No threshold value for occupation numbers given. Defaulting to 0.0000E+00.
  No accuracy for fermi level given. Defaulting to 0.1000E-19.
  Maximum # of iterations to find E_F not set. Defaulting to  200.
  Will not use alltoall communication since running on < 1024 CPUs.
  Partitioning for Hartree potential was not defined. Using partition_type for integrals.
  | Reporting present value of keyword multip_moments_threshold  :       0.10000000E-09
  | This value may affect high angular momentum components of the Hartree potential in periodic systems.
  No q(lm)/r^(l+1) cutoff set for long-range Hartree potential.
  | Using default value of  0.100000E-09 .
  | Verify using the multipole_threshold keyword.
  Defaulting to new monopole extrapolation.
  Density update method: Loop over occupied states selected for charge density update.
------------------------------------------------------------


------------------------------------------------------------
          Reading geometry description geometry.in.
------------------------------------------------------------
  Input structure read successfully.
  The structure contains       19 atoms,  and a total of         61.000 electrons.

  Input geometry:
  | No unit cell requested.
  | Atomic structure:
  |       Atom                x [A]            y [A]            z [A]
  |    1: Species O             -4.053030         0.065001        -1.525160
  |    2: Species H             -4.566710         0.974813        -1.912820
  |    3: Species H             -3.067820         0.330172        -1.477310
  |    4: Species H             -4.370360        -0.049164        -0.572274
  |    5: Species O             -5.293160         2.192130        -2.328800
  |    6: Species H             -4.829300         2.988660        -1.973850
  |    7: Species H             -5.428570         2.328640        -3.235170
  |    8: Species O             -1.645860         0.870179        -1.502250
  |    9: Species H             -1.568890         1.501730        -0.721051
  |   10: Species H             -0.824432         0.282220        -1.377720
  |   11: Species O             -3.818880         2.024990         2.187990
  |   12: Species H             -3.690880         1.961360         3.202150
  |   13: Species H             -4.546490         2.751300         2.045370
  |   14: Species O             -1.975360         2.858040         0.453140
  |   15: Species H             -1.223550         3.375850         0.786238
  |   16: Species H             -2.537520         2.567960         1.156120
  |   17: Species O             -4.066610         4.258280        -0.900064
  |   18: Species H             -3.224110         3.876870        -0.569443
  |   19: Species H             -3.737450         5.116530        -1.322720
  |

  | The smallest distance between any two atoms is         0.92654057 AA.
  |
  | The first atom of this pair is atom number                      5 .
  | The second atom of this pair is atom number                     7 .

  Structure-dependent array size parameters: 
  | Maximum number of distinct radial functions  :       18
  | Maximum number of basis functions            :      429
  | Number of Kohn-Sham states (occupied + empty):      107
------------------------------------------------------------

------------------------------------------------------------
          Preparing all fixed parts of the calculation.
------------------------------------------------------------
  Determining machine precision:
    2.225073858507201E-308
  Setting up grids for atomic and cluster calculations.

  Creating wave function, potential, and density for free atoms.

  Species: H

  List of occupied orbitals and eigenvalues:
    n    l              occ      energy [Ha]    energy [eV]
    1    0           1.0000        -0.241408        -6.5691


  Species: O

  List of occupied orbitals and eigenvalues:
    n    l              occ      energy [Ha]    energy [eV]
    1    0           2.0000       -18.944147      -515.4965
    2    0           2.0000        -0.883529       -24.0421
    2    1           4.0000        -0.330176        -8.9845

  Creating fixed part of basis set: Ionic, confined, hydrogenic.
 
  H                    hydrogenic:
 
  List of hydrogenic basis orbitals: 
    n    l      effective z      eigenvalue [eV]  inner max. [A]     outer max. [A]     outer radius [A]   
    2    0         2.100000       -14.9965           0.193241           1.317192           5.372934
    2    1         3.500000       -41.6672           0.602363           0.602363           4.056010
    1    0         0.850000        -9.8292           0.624864           0.624864           5.372934
    2    1         3.700000       -46.5653           0.573616           0.573616           3.909951
    2    0         1.200000        -4.5995           0.334977           2.228160           5.505921
    3    2         7.000000       -74.0753           0.680692           0.680692           3.769152
 
 
  O                    hydrogenic:
 
  List of hydrogenic basis orbitals: 
    n    l      effective z      eigenvalue [eV]  inner max. [A]     outer max. [A]     outer radius [A]   
    2    1         1.800000       -11.0118           1.178546           1.178546           5.432516
    3    2         7.600000       -87.3182           0.624117           0.624117           3.541422
    3    0         6.400000       -61.9209           0.061166           1.081887           4.306510
    4    3        11.600000      -114.4238           0.731621           0.731621           3.584982
    3    1         6.200000       -58.1113           0.255677           1.030255           4.306510
    3    2         5.600000       -47.4081           0.847222           0.847222           4.413102
    5    4        17.600000      -168.5799           0.749730           0.749730           3.372413
    1    0         0.750000        -7.6499           0.705275           0.705275           5.366508
 

  Adding cutoff potential to free-atom effective potential.
  Creating atomic-like basis functions for current effective potential.

  Species H                   :

  List of atomic basis orbitals and eigenvalues:
    n    l      energy [Ha]    energy [eV]    outer radius [A]
    1    0        -0.241374        -6.5681       5.372934


  Species O                   :

  List of atomic basis orbitals and eigenvalues:
    n    l      energy [Ha]    energy [eV]    outer radius [A]
    1    0       -18.944147      -515.4965       1.415745
    2    0        -0.883529       -24.0421       5.048305
    2    1        -0.330173        -8.9845       5.301302

  Assembling full basis from fixed parts.
  | Species H :   atomic orbital   1 s accepted.
  | Species H :    hydro orbital   2 s accepted.
  | Species H :    hydro orbital   1 s accepted.
  | Species H :    hydro orbital   2 s accepted.
  | Species H :    hydro orbital   2 p accepted.
  | Species H :    hydro orbital   2 p accepted.
  | Species H :    hydro orbital   3 d accepted.
  | Species O :   atomic orbital   1 s accepted.
  | Species O :    hydro orbital   3 s accepted.
  | Species O :   atomic orbital   2 s accepted.
  | Species O :    hydro orbital   1 s accepted.
  | Species O :    hydro orbital   3 p accepted.
  | Species O :   atomic orbital   2 p accepted.
  | Species O :    hydro orbital   2 p accepted.
  | Species O :    hydro orbital   3 d accepted.
  | Species O :    hydro orbital   3 d accepted.
  | Species O :    hydro orbital   4 f accepted.
  | Species O :    hydro orbital   5 g accepted.
 
  Basis size parameters after reduction:
  | Total number of radial functions:       18
  | Total number of basis functions :      429
 
  Testing on-site integration grid accuracy.
  |  Species  Function  <phi|h_atom|phi> (log., in eV)  <phi|h_atom|phi> (rad., in eV)
           1        1                 -6.5683835025                 -6.5684759159
           1        2                 13.3711789951                 13.3708738703
           1        3                 23.6590910787                 23.6532055418
           1        4                 16.2963827186                 16.1870710655 ***
           1        5                 28.7627214838                 28.7627215090
           1        6                 59.5965249172                 59.5965950857
           1        7                 60.2220506392                 60.2220503827
           2        8               -515.4964576505               -515.4964530710
           2        9                 15.3030791347                 15.3030722972
           2       10                -21.7296094581                -21.7296135470
           2       11                 14.2969371730                 14.2969701621
           2       12                 21.0679693190                 21.0679697493
           2       13                 -2.3833606469                 -2.3833613176
           2       14                 13.7067136422                 13.7066766629
           2       15                 45.8013116808                 45.8013116965
           2       16                 52.2309815402                 52.2309831494
           2       17                 85.4120732416                 85.4120732763
           2       18                142.1019167745                142.1019167817
 * Note: Onsite integrals marked "***" above are less accurate than
 * onsite_accuracy_threshold =    0.03000 eV. Usually, this is harmless.
 * When in doubt, tighten the "radial" and/or "radial_multiplier" flags to check.

  Preparing densities etc. for the partition functions (integrals / Hartree potential).

  Preparations completed.
  max(cpu_time)          :      0.173 s.
  Wall clock time (cpu1) :      0.595 s.
------------------------------------------------------------

------------------------------------------------------------
          Begin self-consistency loop: Initialization.

          Date     :  20150727, Time     :  123401.361
------------------------------------------------------------

  Initializing index lists of integration centers etc. from given atomic structure:
  | Number of centers in hartree potential         :        19
  | Number of centers in hartree multipole         :        19
  | Number of centers in electron density summation:        19
  | Number of centers in basis integrals           :        19
  | Number of centers in integrals                 :        19
  Partitioning the integration grid into batches with parallel hashing+maxmin method.
  | Number of batches:     2535
  | Maximal batch size:     171
  | Minimal batch size:      50
  | Average batch size:      97.691
  | Standard deviation of batch sizes:      26.911

  Integration load balanced across     8 MPI tasks.
  Work distribution over tasks is as follows:
  Task     0 has      30912 integration points.
  Task     1 has      30984 integration points.
  Task     2 has      30985 integration points.
  Task     3 has      30904 integration points.
  Task     4 has      30972 integration points.
  Task     5 has      30969 integration points.
  Task     6 has      30912 integration points.
  Task     7 has      31008 integration points.
  Initializing partition tables, free-atom densities, potentials, etc. across the integration grid (initialize_grid_storage).
  | Net number of integration points:   247646
  | of which are non-zero points    :   247088
  Obtaining max. number of non-zero basis functions in each batch (get_n_compute_maxes).
  | Maximal number of non-zero basis functions:      425 in task     0
  | Maximal number of non-zero basis functions:      425 in task     1
  | Maximal number of non-zero basis functions:      425 in task     2
  | Maximal number of non-zero basis functions:      425 in task     3
  | Maximal number of non-zero basis functions:      425 in task     4
  | Maximal number of non-zero basis functions:      425 in task     5
  | Maximal number of non-zero basis functions:      425 in task     6
  | Maximal number of non-zero basis functions:      425 in task     7
  Integrating Hamiltonian matrix: batch-based integration.
  Time summed over all CPUs for integration: real work       12.783 s, elapsed       12.924 s
  Integrating overlap matrix.
  Time summed over all CPUs for integration: real work        6.954 s, elapsed        7.009 s

  Updating Kohn-Sham eigenvalues, eigenvectors, occupation numbers, and Fermi level.
  Solving generalized eigenproblem
  Updating Kohn-Sham eigenvalues and eigenfunctions.
  Transforming overlap matrix and checking for singularities.
  Overlap matrix is nonsingular:
  | Lowest eigenvalue:  0.215856E-03
  Solving real generalised eigenvalue problem by standard LAPACK (fast)
  Determining occupation numbers for Kohn-Sham eigenstates.
  | Chemical potential (Fermi level) in eV                 : -.27676803E+01
  | Error in electron count due to remaining E_F inaccuracy: 0.18751578E-08
  | Maximum occupation number of highest empty state:  0.00E+00

  Writing Kohn-Sham eigenvalues.

  State    Occupation    Eigenvalue [Ha]    Eigenvalue [eV]
      1       2.00000         -19.065152         -518.78917
      2       2.00000         -19.064964         -518.78406
      3       2.00000         -19.059572         -518.63734
      4       2.00000         -19.042990         -518.18612
      5       2.00000         -19.042594         -518.17534
      6       2.00000         -19.032624         -517.90405
      7       2.00000          -1.129605          -30.73813
      8       2.00000          -1.115218          -30.34662
      9       2.00000          -1.113204          -30.29183
     10       2.00000          -1.086640          -29.56898
     11       2.00000          -1.081769          -29.43642
     12       2.00000          -1.065098          -28.98279
     13       2.00000          -0.656657          -17.86854
     14       2.00000          -0.653808          -17.79103
     15       2.00000          -0.639949          -17.41389
     16       2.00000          -0.622834          -16.94816
     17       2.00000          -0.610314          -16.60748
     18       2.00000          -0.607047          -16.51858
     19       2.00000          -0.594127          -16.16701
     20       2.00000          -0.535603          -14.57451
     21       2.00000          -0.523788          -14.25301
     22       2.00000          -0.507531          -13.81062
     23       2.00000          -0.506245          -13.77563
     24       2.00000          -0.492327          -13.39690
     25       2.00000          -0.484835          -13.19303
     26       2.00000          -0.452980          -12.32622
     27       2.00000          -0.448738          -12.21079
     28       2.00000          -0.435887          -11.86109
     29       2.00000          -0.433485          -11.79574
     30       2.00000          -0.425510          -11.57871
     31       1.00000          -0.101710           -2.76768
     32       0.00000          -0.071542           -1.94675
     33       0.00000          -0.064087           -1.74389
     34       0.00000          -0.059574           -1.62110
     35       0.00000          -0.034323           -0.93396
     36       0.00000          -0.030497           -0.82987
     37       0.00000          -0.013953           -0.37967
     38       0.00000           0.021363            0.58132
     39       0.00000           0.032298            0.87886
     40       0.00000           0.038464            1.04666
     41       0.00000           0.046518            1.26581
     42       0.00000           0.054176            1.47420
     43       0.00000           0.059748            1.62583
     44       0.00000           0.065685            1.78739
     45       0.00000           0.080346            2.18633
     46       0.00000           0.084964            2.31199
     47       0.00000           0.088450            2.40685
     48       0.00000           0.096854            2.63553
     49       0.00000           0.099532            2.70841
     50       0.00000           0.106784            2.90575
     51       0.00000           0.119747            3.25849
     52       0.00000           0.121271            3.29996
     53       0.00000           0.123464            3.35963
     54       0.00000           0.130541            3.55219
     55       0.00000           0.133680            3.63761
     56       0.00000           0.141032            3.83766
     57       0.00000           0.145766            3.96648
     58       0.00000           0.152556            4.15126
     59       0.00000           0.164920            4.48770
     60       0.00000           0.169995            4.62581
     61       0.00000           0.189725            5.16269
     62       0.00000           0.210804            5.73627
     63       0.00000           0.225910            6.14733
     64       0.00000           0.230149            6.26267
     65       0.00000           0.242915            6.61007
     66       0.00000           0.249372            6.78577
     67       0.00000           0.258881            7.04450
     68       0.00000           0.269000            7.31987
     69       0.00000           0.288923            7.86199
     70       0.00000           0.298831            8.13161
     71       0.00000           0.304009            8.27250
     72       0.00000           0.312167            8.49449
     73       0.00000           0.335692            9.13464
     74       0.00000           0.343749            9.35388
     75       0.00000           0.349667            9.51493
     76       0.00000           0.358864            9.76518
     77       0.00000           0.371054           10.09689
     78       0.00000           0.380430           10.35204
     79       0.00000           0.385697           10.49534
     80       0.00000           0.387270           10.53815
     81       0.00000           0.407125           11.07845
     82       0.00000           0.420861           11.45222
     83       0.00000           0.438133           11.92220
     84       0.00000           0.443694           12.07353
     85       0.00000           0.444254           12.08878
     86       0.00000           0.458156           12.46706
     87       0.00000           0.467367           12.71770
     88       0.00000           0.475266           12.93265
     89       0.00000           0.484278           13.17788
     90       0.00000           0.506847           13.79200
     91       0.00000           0.517572           14.08385
     92       0.00000           0.550429           14.97794
     93       0.00000           0.557788           15.17818
     94       0.00000           0.567071           15.43078
     95       0.00000           0.591152           16.08607
     96       0.00000           0.611797           16.64785
     97       0.00000           0.613604           16.69702
     98       0.00000           0.647961           17.63192
     99       0.00000           0.653878           17.79292
    100       0.00000           0.688869           18.74508
    101       0.00000           0.704592           19.17294
    102       0.00000           0.719103           19.56779
    103       0.00000           0.742260           20.19793
    104       0.00000           0.755266           20.55184
    105       0.00000           0.756827           20.59430
    106       0.00000           0.782038           21.28034
    107       0.00000           0.806474           21.94526

  Highest occupied state (VBM) at     -2.76768032 eV
  | Occupation number:      1.00000000

  Lowest unoccupied state (CBM) at    -1.94674777 eV
  | Occupation number:      0.00000000

  Overall HOMO-LUMO gap:      0.82093255 eV.
  Calculating total energy contributions from superposition of free atom densities.

  Total energy components:
  | Sum of eigenvalues            :        -261.16389812 Ha       -7106.63124917 eV
  | XC energy correction          :         -55.09104564 Ha       -1499.10362540 eV
  | XC potential correction       :          70.41669491 Ha        1916.13576048 eV
  | Free-atom electrostatic energy:        -214.31252779 Ha       -5831.74059678 eV
  | Hartree energy correction     :           0.00000000 Ha           0.00000000 eV
  | van der Waals energy corr.    :           0.00000000 Ha           0.00000000 eV
  | Entropy correction            :          -0.00010367 Ha          -0.00282095 eV
  | ---------------------------
  | Total energy                  :        -460.15077663 Ha      -12521.33971087 eV
  | Total energy, T -> 0          :        -460.15088030 Ha      -12521.34253181 eV  <-- do not rely on this value for anything but (periodic) metals
  | Electronic free energy        :        -460.15098397 Ha      -12521.34535276 eV

  Derived energy quantities:
  | Kinetic energy                :         455.77328362 Ha       12402.22206532 eV
  | Electrostatic energy          :        -860.83301461 Ha      -23424.45815078 eV
  | Energy correction for multipole
  | error in Hartree potential    :           0.00000000 Ha           0.00000000 eV
  | Sum of eigenvalues per atom                           :        -374.03322364 eV
  | Total energy (T->0) per atom                          :        -659.01802799 eV  <-- do not rely on this value for anything but (periodic) metals
  | Electronic free energy per atom                       :        -659.01817646 eV
  Initialize hartree_potential_storage
  Max. number of atoms included in rho_multipole:           19

  End scf initialization - timings             :  max(cpu_time)    wall_clock(cpu1)
  | Time for scf. initialization               :        3.373 s           3.373 s
  | Boundary condition initialization          :        0.000 s           0.000 s
  | Integration                                :        2.499 s           2.498 s
  | Solution of K.-S. eqns.                    :        0.331 s           0.331 s
  | Grid partitioning                          :        0.221 s           0.220 s
  | Preloading free-atom quantities on grid    :        0.014 s           0.013 s
  | Free-atom superposition energy             :        0.097 s           0.097 s
  | Total energy evaluation                    :        0.001 s           0.001 s
------------------------------------------------------------

------------------------------------------------------------
          Begin self-consistency iteration #    1

  Date     :  20150727, Time     :  123404.734
------------------------------------------------------------
  Evaluating new KS density.
  Integration grid: deviation in total charge (<rho> - N_e) =   1.875165E-09
  Pulay mixing of updated and previous charge densities.

  Evaluating partitioned Hartree potential by multipole expansion.
  | Analytical far-field extrapolation by fixed multipoles:
  | Hartree multipole sum: apparent total charge =  -0.161158E-05
  Summing up the Hartree potential.
  Time summed over all CPUs for potential: real work        4.072 s, elapsed        4.100 s
  | RMS charge density error from multipole expansion :   0.181086E-02

  Integrating Hamiltonian matrix: batch-based integration.
  Time summed over all CPUs for integration: real work       12.728 s, elapsed       12.924 s

  Updating Kohn-Sham eigenvalues, eigenvectors, occupation numbers, and Fermi level.
  Solving generalized eigenproblem
  Updating Kohn-Sham eigenvalues and eigenfunctions.
  Solving real generalised eigenvalue problem by standard LAPACK (fast)
  Determining occupation numbers for Kohn-Sham eigenstates.
  | Chemical potential (Fermi level) in eV                 : -.25022086E+01
  | Error in electron count due to remaining E_F inaccuracy: 0.68241945E-09
  | Maximum occupation number of highest empty state:  0.00E+00

  Writing Kohn-Sham eigenvalues.

  State    Occupation    Eigenvalue [Ha]    Eigenvalue [eV]
      1       2.00000         -19.011370         -517.32570
      2       2.00000         -18.993972         -516.85227
      3       2.00000         -18.981395         -516.51004
      4       2.00000         -18.973289         -516.28947
      5       2.00000         -18.966086         -516.09346
      6       2.00000         -18.959135         -515.90430
      7       2.00000          -1.101409          -29.97085
      8       2.00000          -1.082861          -29.46615
      9       2.00000          -1.073747          -29.21815
     10       2.00000          -1.047615          -28.50706
     11       2.00000          -1.046724          -28.48280
     12       2.00000          -1.027352          -27.95566
     13       2.00000          -0.623538          -16.96732
     14       2.00000          -0.621764          -16.91905
     15       2.00000          -0.616986          -16.78905
     16       2.00000          -0.599617          -16.31642
     17       2.00000          -0.578781          -15.74943
     18       2.00000          -0.574328          -15.62827
     19       2.00000          -0.562244          -15.29945
     20       2.00000          -0.504263          -13.72168
     21       2.00000          -0.487555          -13.26704
     22       2.00000          -0.472341          -12.85305
     23       2.00000          -0.468911          -12.75970
     24       2.00000          -0.457597          -12.45186
     25       2.00000          -0.452011          -12.29984
     26       2.00000          -0.418052          -11.37577
     27       2.00000          -0.408382          -11.11263
     28       2.00000          -0.400340          -10.89380
     29       2.00000          -0.392680          -10.68536
     30       2.00000          -0.386163          -10.50803
     31       1.00000          -0.091954           -2.50221
     32       0.00000          -0.062424           -1.69864
     33       0.00000          -0.055486           -1.50986
     34       0.00000          -0.051663           -1.40581
     35       0.00000          -0.026783           -0.72881
     36       0.00000          -0.022973           -0.62512
     37       0.00000          -0.004365           -0.11877
     38       0.00000           0.032869            0.89442
     39       0.00000           0.039026            1.06195
     40       0.00000           0.047605            1.29541
     41       0.00000           0.054161            1.47381
     42       0.00000           0.065407            1.77981
     43       0.00000           0.065579            1.78448
     44       0.00000           0.074416            2.02496
     45       0.00000           0.090896            2.47340
     46       0.00000           0.091743            2.49646
     47       0.00000           0.097011            2.63982
     48       0.00000           0.105605            2.87365
     49       0.00000           0.107164            2.91609
     50       0.00000           0.121039            3.29363
     51       0.00000           0.130044            3.53868
     52       0.00000           0.131288            3.57254
     53       0.00000           0.134087            3.64869
     54       0.00000           0.139922            3.80746
     55       0.00000           0.144223            3.92450
     56       0.00000           0.153500            4.17694
     57       0.00000           0.158180            4.30429
     58       0.00000           0.163884            4.45951
     59       0.00000           0.175418            4.77336
     60       0.00000           0.180385            4.90853
     61       0.00000           0.197812            5.38273
     62       0.00000           0.220827            6.00902
     63       0.00000           0.235539            6.40933
     64       0.00000           0.237694            6.46797
     65       0.00000           0.249945            6.80136
     66       0.00000           0.257739            7.01344
     67       0.00000           0.267156            7.26967
     68       0.00000           0.277295            7.54559
     69       0.00000           0.295055            8.02884
     70       0.00000           0.306738            8.34678
     71       0.00000           0.311738            8.48283
     72       0.00000           0.320414            8.71890
     73       0.00000           0.343864            9.35703
     74       0.00000           0.351965            9.57746
     75       0.00000           0.358372            9.75181
     76       0.00000           0.368022           10.01439
     77       0.00000           0.380149           10.34438
     78       0.00000           0.388417           10.56935
     79       0.00000           0.393924           10.71921
     80       0.00000           0.396474           10.78861
     81       0.00000           0.415411           11.30390
     82       0.00000           0.429192           11.67891
     83       0.00000           0.446952           12.16219
     84       0.00000           0.451587           12.28830
     85       0.00000           0.453710           12.34609
     86       0.00000           0.468899           12.75940
     87       0.00000           0.475706           12.94461
     88       0.00000           0.485165           13.20201
     89       0.00000           0.493677           13.43363
     90       0.00000           0.519064           14.12444
     91       0.00000           0.527948           14.36619
     92       0.00000           0.561114           15.26869
     93       0.00000           0.567355           15.43851
     94       0.00000           0.577091           15.70345
     95       0.00000           0.602183           16.38623
     96       0.00000           0.623756           16.97326
     97       0.00000           0.624519           16.99403
     98       0.00000           0.659039           17.93336
     99       0.00000           0.664044           18.06955
    100       0.00000           0.701452           19.08747
    101       0.00000           0.716459           19.49585
    102       0.00000           0.731042           19.89267
    103       0.00000           0.754335           20.52651
    104       0.00000           0.765879           20.84062
    105       0.00000           0.767834           20.89383
    106       0.00000           0.794408           21.61695
    107       0.00000           0.818163           22.26335

  Highest occupied state (VBM) at     -2.50220863 eV
  | Occupation number:      1.00000000

  Lowest unoccupied state (CBM) at    -1.69864234 eV
  | Occupation number:      0.00000000

  Overall HOMO-LUMO gap:      0.80356629 eV.

  Total energy components:
  | Sum of eigenvalues            :        -258.67296640 Ha       -7038.84954847 eV
  | XC energy correction          :         -55.35393044 Ha       -1506.25708487 eV
  | XC potential correction       :          70.75967361 Ha        1925.46868576 eV
  | Free-atom electrostatic energy:        -214.31252779 Ha       -5831.74059678 eV
  | Hartree energy correction     :          -2.43161505 Ha         -66.16761210 eV
  | van der Waals energy corr.    :           0.00000000 Ha           0.00000000 eV
  | Entropy correction            :          -0.00010367 Ha          -0.00282095 eV
  | ---------------------------
  | Total energy                  :        -460.01136607 Ha      -12517.54615645 eV
  | Total energy, T -> 0          :        -460.01146974 Ha      -12517.54897740 eV  <-- do not rely on this value for anything but (periodic) metals
  | Electronic free energy        :        -460.01157340 Ha      -12517.55179835 eV

  Derived energy quantities:
  | Kinetic energy                :         457.36713647 Ha       12445.59300807 eV
  | Electrostatic energy          :        -862.02457209 Ha      -23456.88207965 eV
  | Energy correction for multipole
  | error in Hartree potential    :           0.00038298 Ha           0.01042152 eV
  | Sum of eigenvalues per atom                           :        -370.46576571 eV
  | Total energy (T->0) per atom                          :        -658.81836723 eV  <-- do not rely on this value for anything but (periodic) metals
  | Electronic free energy per atom                       :        -658.81851570 eV

  Self-consistency convergence accuracy:
  | Change of charge density      : 0.6887E+00
  | Change of sum of eigenvalues  : 0.6778E+02 eV
  | Change of total energy        : 0.3794E+01 eV

  End self-consistency iteration #     1       :  max(cpu_time)    wall_clock(cpu1)
  | Time for this iteration                    :        3.313 s           3.313 s
  | Charge density update                      :        1.079 s           1.079 s
  | Density mixing                             :        0.004 s           0.004 s
  | Hartree multipole update                   :        0.007 s           0.007 s
  | Hartree multipole summation                :        0.513 s           0.513 s
  | Integration                                :        1.619 s           1.618 s
  | Solution of K.-S. eqns.                    :        0.091 s           0.091 s
  | Total energy evaluation                    :        0.000 s           0.000 s
------------------------------------------------------------

------------------------------------------------------------
          Begin self-consistency iteration #    2

  Date     :  20150727, Time     :  123408.047
------------------------------------------------------------
  Evaluating new KS density.
  Integration grid: deviation in total charge (<rho> - N_e) =   6.824550E-10
  Pulay mixing of updated and previous charge densities.

  Evaluating partitioned Hartree potential by multipole expansion.
  | Analytical far-field extrapolation by fixed multipoles:
  | Hartree multipole sum: apparent total charge =  -0.544274E-05
  Summing up the Hartree potential.
  Time summed over all CPUs for potential: real work        4.067 s, elapsed        4.086 s
  | RMS charge density error from multipole expansion :   0.737787E-02

  Integrating Hamiltonian matrix: batch-based integration.
  Time summed over all CPUs for integration: real work       12.715 s, elapsed       12.875 s

  Updating Kohn-Sham eigenvalues, eigenvectors, occupation numbers, and Fermi level.
  Solving generalized eigenproblem
  Updating Kohn-Sham eigenvalues and eigenfunctions.
  Solving real generalised eigenvalue problem by standard LAPACK (fast)
  Determining occupation numbers for Kohn-Sham eigenstates.
  | Chemical potential (Fermi level) in eV                 : -.18967183E+01
  | Error in electron count due to remaining E_F inaccuracy: 0.90080974E-08
  | Maximum occupation number of highest empty state:  0.00E+00

  Highest occupied state (VBM) at     -1.89671832 eV
  | Occupation number:      1.00000001

  Lowest unoccupied state (CBM) at    -1.12057969 eV
  | Occupation number:      0.00000000

  Overall HOMO-LUMO gap:      0.77613863 eV.

  Total energy components:
  | Sum of eigenvalues            :        -252.66392889 Ha       -6875.33531821 eV
  | XC energy correction          :         -56.02126446 Ha       -1524.41616734 eV
  | XC potential correction       :          71.62835435 Ha        1949.10669136 eV
  | Free-atom electrostatic energy:        -214.31252779 Ha       -5831.74059678 eV
  | Hartree energy correction     :          -8.48486496 Ha        -230.88492273 eV
  | van der Waals energy corr.    :           0.00000000 Ha           0.00000000 eV
  | Entropy correction            :          -0.00010367 Ha          -0.00282095 eV
  | ---------------------------
  | Total energy                  :        -459.85423173 Ha      -12513.27031369 eV
  | Total energy, T -> 0          :        -459.85433540 Ha      -12513.27313464 eV  <-- do not rely on this value for anything but (periodic) metals
  | Electronic free energy        :        -459.85443907 Ha      -12513.27595559 eV

  Derived energy quantities:
  | Kinetic energy                :         460.71151056 Ha       12536.59805734 eV
  | Electrostatic energy          :        -864.54447783 Ha      -23525.45220369 eV
  | Energy correction for multipole
  | error in Hartree potential    :           0.00037099 Ha           0.01009526 eV
  | Sum of eigenvalues per atom                           :        -361.85975359 eV
  | Total energy (T->0) per atom                          :        -658.59332288 eV  <-- do not rely on this value for anything but (periodic) metals
  | Electronic free energy per atom                       :        -658.59347135 eV

  Self-consistency convergence accuracy:
  | Change of charge density      : 0.5236E+00
  | Change of sum of eigenvalues  : 0.1635E+03 eV
  | Change of total energy        : 0.4276E+01 eV

  End self-consistency iteration #     2       :  max(cpu_time)    wall_clock(cpu1)
  | Time for this iteration                    :        3.301 s           3.302 s
  | Charge density update                      :        1.074 s           1.074 s
  | Density mixing                             :        0.007 s           0.007 s
  | Hartree multipole update                   :        0.006 s           0.007 s
  | Hartree multipole summation                :        0.512 s           0.511 s
  | Integration                                :        1.612 s           1.612 s
  | Solution of K.-S. eqns.                    :        0.091 s           0.091 s
  | Total energy evaluation                    :        0.000 s           0.000 s
------------------------------------------------------------

------------------------------------------------------------
          Begin self-consistency iteration #    3

  Date     :  20150727, Time     :  123411.349
------------------------------------------------------------
  Evaluating new KS density.
  Integration grid: deviation in total charge (<rho> - N_e) =   9.008112E-09
  Pulay mixing of updated and previous charge densities.

  Evaluating partitioned Hartree potential by multipole expansion.
  | Analytical far-field extrapolation by fixed multipoles:
  | Hartree multipole sum: apparent total charge =  -0.604825E-05
  Summing up the Hartree potential.
  Time summed over all CPUs for potential: real work        4.068 s, elapsed        4.087 s
  | RMS charge density error from multipole expansion :   0.154559E-01

  Integrating Hamiltonian matrix: batch-based integration.
  Time summed over all CPUs for integration: real work       12.710 s, elapsed       12.870 s

  Updating Kohn-Sham eigenvalues, eigenvectors, occupation numbers, and Fermi level.
  Solving generalized eigenproblem
  Updating Kohn-Sham eigenvalues and eigenfunctions.
  Solving real generalised eigenvalue problem by standard LAPACK (fast)
  Determining occupation numbers for Kohn-Sham eigenstates.
  | Chemical potential (Fermi level) in eV                 : -.18225448E+01
  | Error in electron count due to remaining E_F inaccuracy: 0.00000000E+00
  | Maximum occupation number of highest empty state:  0.00E+00

  Highest occupied state (VBM) at     -1.82254478 eV
  | Occupation number:      1.00000000

  Lowest unoccupied state (CBM) at    -1.82254478 eV
  | Occupation number:      1.00000000

  Overall HOMO-LUMO gap:      0.00000000 eV.

  Total energy components:
  | Sum of eigenvalues            :        -252.95299091 Ha       -6883.20109602 eV
  | XC energy correction          :         -56.03326695 Ha       -1524.74277187 eV
  | XC potential correction       :          71.63282475 Ha        1949.22833715 eV
  | Free-atom electrostatic energy:        -214.31252779 Ha       -5831.74059678 eV
  | Hartree energy correction     :          -8.18706303 Ha        -222.78132017 eV
  | van der Waals energy corr.    :           0.00000000 Ha           0.00000000 eV
  | Entropy correction            :          -0.00010367 Ha          -0.00282095 eV
  | ---------------------------
  | Total energy                  :        -459.85302393 Ha      -12513.23744769 eV
  | Total energy, T -> 0          :        -459.85312760 Ha      -12513.24026863 eV  <-- do not rely on this value for anything but (periodic) metals
  | Electronic free energy        :        -459.85323127 Ha      -12513.24308958 eV

  Derived energy quantities:
  | Kinetic energy                :         458.55811008 Ha       12478.00104900 eV
  | Electrostatic energy          :        -862.37786706 Ha      -23466.49572481 eV
  | Energy correction for multipole
  | error in Hartree potential    :          -0.00570050 Ha          -0.15511843 eV
  | Sum of eigenvalues per atom                           :        -362.27374190 eV
  | Total energy (T->0) per atom                          :        -658.59159309 eV  <-- do not rely on this value for anything but (periodic) metals
  | Electronic free energy per atom                       :        -658.59174156 eV

  Self-consistency convergence accuracy:
  | Change of charge density      : 0.2533E+00
  | Change of sum of eigenvalues  : -.7866E+01 eV
  | Change of total energy        : 0.3287E-01 eV

  End self-consistency iteration #     3       :  max(cpu_time)    wall_clock(cpu1)
  | Time for this iteration                    :        3.301 s           3.301 s
  | Charge density update                      :        1.072 s           1.072 s
  | Density mixing                             :        0.009 s           0.009 s
  | Hartree multipole update                   :        0.007 s           0.006 s
  | Hartree multipole summation                :        0.511 s           0.512 s
  | Integration                                :        1.612 s           1.611 s
  | Solution of K.-S. eqns.                    :        0.090 s           0.091 s
  | Total energy evaluation                    :        0.000 s           0.000 s
------------------------------------------------------------

------------------------------------------------------------
          Begin self-consistency iteration #    4

  Date     :  20150727, Time     :  123414.650
------------------------------------------------------------
  Evaluating new KS density.
  Integration grid: deviation in total charge (<rho> - N_e) =   4.263256E-14
  Pulay mixing of updated and previous charge densities.

  Evaluating partitioned Hartree potential by multipole expansion.
  | Analytical far-field extrapolation by fixed multipoles:
  | Hartree multipole sum: apparent total charge =  -0.707879E-05
  Summing up the Hartree potential.
  Time summed over all CPUs for potential: real work        4.067 s, elapsed        4.085 s
  | RMS charge density error from multipole expansion :   0.182433E-01

  Integrating Hamiltonian matrix: batch-based integration.
  Time summed over all CPUs for integration: real work       12.712 s, elapsed       12.876 s

  Updating Kohn-Sham eigenvalues, eigenvectors, occupation numbers, and Fermi level.
  Solving generalized eigenproblem
  Updating Kohn-Sham eigenvalues and eigenfunctions.
  Solving real generalised eigenvalue problem by standard LAPACK (fast)
  Determining occupation numbers for Kohn-Sham eigenstates.
  | Chemical potential (Fermi level) in eV                 : -.17122380E+01
  | Error in electron count due to remaining E_F inaccuracy: -.48684825E-08
  | Maximum occupation number of highest empty state:  0.00E+00

  Highest occupied state (VBM) at     -7.45637770 eV
  | Occupation number:      2.00000000

  Lowest unoccupied state (CBM) at    -1.71223804 eV
  | Occupation number:      1.00000000

  Overall HOMO-LUMO gap:      5.74413965 eV.

  Total energy components:
  | Sum of eigenvalues            :        -251.91975659 Ha       -6855.08535966 eV
  | XC energy correction          :         -56.17042498 Ha       -1528.47503154 eV
  | XC potential correction       :          71.80902081 Ha        1954.02287579 eV
  | Free-atom electrostatic energy:        -214.31252779 Ha       -5831.74059678 eV
  | Hartree energy correction     :          -9.25425778 Ha        -251.82116665 eV
  | van der Waals energy corr.    :           0.00000000 Ha           0.00000000 eV
  | Entropy correction            :          -0.00010367 Ha          -0.00282095 eV
  | ---------------------------
  | Total energy                  :        -459.84794632 Ha      -12513.09927884 eV
  | Total energy, T -> 0          :        -459.84804999 Ha      -12513.10209979 eV  <-- do not rely on this value for anything but (periodic) metals
  | Electronic free energy        :        -459.84815366 Ha      -12513.10492074 eV

  Derived energy quantities:
  | Kinetic energy                :         458.68518903 Ha       12481.45904313 eV
  | Electrostatic energy          :        -862.36271037 Ha      -23466.08329044 eV
  | Energy correction for multipole
  | error in Hartree potential    :          -0.00711977 Ha          -0.19373891 eV
  | Sum of eigenvalues per atom                           :        -360.79396630 eV
  | Total energy (T->0) per atom                          :        -658.58432104 eV  <-- do not rely on this value for anything but (periodic) metals
  | Electronic free energy per atom                       :        -658.58446951 eV

  Self-consistency convergence accuracy:
  | Change of charge density      : 0.1093E+00
  | Change of sum of eigenvalues  : 0.2812E+02 eV
  | Change of total energy        : 0.1382E+00 eV

  End self-consistency iteration #     4       :  max(cpu_time)    wall_clock(cpu1)
  | Time for this iteration                    :        3.302 s           3.303 s
  | Charge density update                      :        1.070 s           1.071 s
  | Density mixing                             :        0.011 s           0.010 s
  | Hartree multipole update                   :        0.006 s           0.007 s
  | Hartree multipole summation                :        0.512 s           0.511 s
  | Integration                                :        1.612 s           1.612 s
  | Solution of K.-S. eqns.                    :        0.092 s           0.092 s
  | Total energy evaluation                    :        0.000 s           0.000 s
------------------------------------------------------------

------------------------------------------------------------
          Begin self-consistency iteration #    5

  Date     :  20150727, Time     :  123417.953
------------------------------------------------------------
  Evaluating new KS density.
  Integration grid: deviation in total charge (<rho> - N_e) =  -4.868468E-09
  Pulay mixing of updated and previous charge densities.

  Evaluating partitioned Hartree potential by multipole expansion.
  | Analytical far-field extrapolation by fixed multipoles:
  | Hartree multipole sum: apparent total charge =  -0.746762E-05
  Summing up the Hartree potential.
  Time summed over all CPUs for potential: real work        4.067 s, elapsed        4.086 s
  | RMS charge density error from multipole expansion :   0.193290E-01

  Integrating Hamiltonian matrix: batch-based integration.
  Time summed over all CPUs for integration: real work       12.715 s, elapsed       12.871 s

  Updating Kohn-Sham eigenvalues, eigenvectors, occupation numbers, and Fermi level.
  Solving generalized eigenproblem
  Updating Kohn-Sham eigenvalues and eigenfunctions.
  Solving real generalised eigenvalue problem by standard LAPACK (fast)
  Determining occupation numbers for Kohn-Sham eigenstates.
  | Chemical potential (Fermi level) in eV                 : -.16903336E+01
  | Error in electron count due to remaining E_F inaccuracy: 0.00000000E+00
  | Maximum occupation number of highest empty state:  0.00E+00

  Highest occupied state (VBM) at     -1.69033358 eV
  | Occupation number:      1.00000000

  Lowest unoccupied state (CBM) at    -1.69033358 eV
  | Occupation number:      1.00000000

  Overall HOMO-LUMO gap:      0.00000000 eV.

  Total energy components:
  | Sum of eigenvalues            :        -251.68276516 Ha       -6848.63649468 eV
  | XC energy correction          :         -56.20497796 Ha       -1529.41526613 eV
  | XC potential correction       :          71.85279788 Ha        1955.21411046 eV
  | Free-atom electrostatic energy:        -214.31252779 Ha       -5831.74059678 eV
  | Hartree energy correction     :          -9.49992195 Ha        -258.50602884 eV
  | van der Waals energy corr.    :           0.00000000 Ha           0.00000000 eV
  | Entropy correction            :          -0.00010367 Ha          -0.00282095 eV
  | ---------------------------
  | Total energy                  :        -459.84739497 Ha      -12513.08427596 eV
  | Total energy, T -> 0          :        -459.84749864 Ha      -12513.08709691 eV  <-- do not rely on this value for anything but (periodic) metals
  | Electronic free energy        :        -459.84760231 Ha      -12513.08991785 eV

  Derived energy quantities:
  | Kinetic energy                :         458.68708768 Ha       12481.51070791 eV
  | Electrostatic energy          :        -862.32950469 Ha      -23465.17971774 eV
  | Energy correction for multipole
  | error in Hartree potential    :          -0.00799753 Ha          -0.21762393 eV
  | Sum of eigenvalues per atom                           :        -360.45455235 eV
  | Total energy (T->0) per atom                          :        -658.58353142 eV  <-- do not rely on this value for anything but (periodic) metals
  | Electronic free energy per atom                       :        -658.58367989 eV

  Self-consistency convergence accuracy:
  | Change of charge density      : 0.4091E-01
  | Change of sum of eigenvalues  : 0.6449E+01 eV
  | Change of total energy        : 0.1500E-01 eV

  End self-consistency iteration #     5       :  max(cpu_time)    wall_clock(cpu1)
  | Time for this iteration                    :        3.304 s           3.304 s
  | Charge density update                      :        1.072 s           1.072 s
  | Density mixing                             :        0.012 s           0.012 s
  | Hartree multipole update                   :        0.006 s           0.006 s
  | Hartree multipole summation                :        0.511 s           0.512 s
  | Integration                                :        1.612 s           1.611 s
  | Solution of K.-S. eqns.                    :        0.090 s           0.091 s
  | Total energy evaluation                    :        0.001 s           0.000 s
------------------------------------------------------------

------------------------------------------------------------
          Begin self-consistency iteration #    6

  Date     :  20150727, Time     :  123421.257
------------------------------------------------------------
  Evaluating new KS density.
  Integration grid: deviation in total charge (<rho> - N_e) =  -1.421085E-14
  Pulay mixing of updated and previous charge densities.

  Evaluating partitioned Hartree potential by multipole expansion.
  | Analytical far-field extrapolation by fixed multipoles:
  | Hartree multipole sum: apparent total charge =  -0.759763E-05
  Summing up the Hartree potential.
  Time summed over all CPUs for potential: real work        4.067 s, elapsed        4.086 s
  | RMS charge density error from multipole expansion :   0.196206E-01

  Integrating Hamiltonian matrix: batch-based integration.
  Time summed over all CPUs for integration: real work       12.713 s, elapsed       12.869 s

  Updating Kohn-Sham eigenvalues, eigenvectors, occupation numbers, and Fermi level.
  Solving generalized eigenproblem
  Updating Kohn-Sham eigenvalues and eigenfunctions.
  Solving real generalised eigenvalue problem by standard LAPACK (fast)
  Determining occupation numbers for Kohn-Sham eigenstates.
  | Chemical potential (Fermi level) in eV                 : -.16930333E+01
  | Error in electron count due to remaining E_F inaccuracy: 0.00000000E+00
  | Maximum occupation number of highest empty state:  0.00E+00

  Highest occupied state (VBM) at     -1.69303333 eV
  | Occupation number:      1.00000000

  Lowest unoccupied state (CBM) at    -1.69303333 eV
  | Occupation number:      1.00000000

  Overall HOMO-LUMO gap:      0.00000000 eV.

  Total energy components:
  | Sum of eigenvalues            :        -251.68986331 Ha       -6848.82964522 eV
  | XC energy correction          :         -56.20730493 Ha       -1529.47858609 eV
  | XC potential correction       :          71.85538717 Ha        1955.28456865 eV
  | Free-atom electrostatic energy:        -214.31252779 Ha       -5831.74059678 eV
  | Hartree energy correction     :          -9.49311409 Ha        -258.32077764 eV
  | van der Waals energy corr.    :           0.00000000 Ha           0.00000000 eV
  | Entropy correction            :          -0.00010367 Ha          -0.00282095 eV
  | ---------------------------
  | Total energy                  :        -459.84742294 Ha      -12513.08503708 eV
  | Total energy, T -> 0          :        -459.84752661 Ha      -12513.08785803 eV  <-- do not rely on this value for anything but (periodic) metals
  | Electronic free energy        :        -459.84763028 Ha      -12513.09067898 eV

  Derived energy quantities:
  | Kinetic energy                :         458.65532421 Ha       12480.64637996 eV
  | Electrostatic energy          :        -862.29544222 Ha      -23464.25283095 eV
  | Energy correction for multipole
  | error in Hartree potential    :          -0.00830941 Ha          -0.22611048 eV
  | Sum of eigenvalues per atom                           :        -360.46471817 eV
  | Total energy (T->0) per atom                          :        -658.58357148 eV  <-- do not rely on this value for anything but (periodic) metals
  | Electronic free energy per atom                       :        -658.58371995 eV

  Self-consistency convergence accuracy:
  | Change of charge density      : 0.8597E-02
  | Change of sum of eigenvalues  : -.1932E+00 eV
  | Change of total energy        : -.7611E-03 eV

  End self-consistency iteration #     6       :  max(cpu_time)    wall_clock(cpu1)
  | Time for this iteration                    :        3.306 s           3.307 s
  | Charge density update                      :        1.072 s           1.072 s
  | Density mixing                             :        0.014 s           0.014 s
  | Hartree multipole update                   :        0.006 s           0.006 s
  | Hartree multipole summation                :        0.512 s           0.512 s
  | Integration                                :        1.611 s           1.611 s
  | Solution of K.-S. eqns.                    :        0.092 s           0.092 s
  | Total energy evaluation                    :        0.000 s           0.000 s
------------------------------------------------------------

------------------------------------------------------------
          Begin self-consistency iteration #    7

  Date     :  20150727, Time     :  123424.564
------------------------------------------------------------
  Evaluating new KS density.
  Integration grid: deviation in total charge (<rho> - N_e) =   1.421085E-14
  Pulay mixing of updated and previous charge densities.

  Evaluating partitioned Hartree potential by multipole expansion.
  | Analytical far-field extrapolation by fixed multipoles:
  | Hartree multipole sum: apparent total charge =  -0.765201E-05
  Summing up the Hartree potential.
  Time summed over all CPUs for potential: real work        4.067 s, elapsed        4.086 s
  | RMS charge density error from multipole expansion :   0.196437E-01

  Integrating Hamiltonian matrix: batch-based integration.
  Time summed over all CPUs for integration: real work       12.714 s, elapsed       12.879 s

  Updating Kohn-Sham eigenvalues, eigenvectors, occupation numbers, and Fermi level.
  Solving generalized eigenproblem
  Updating Kohn-Sham eigenvalues and eigenfunctions.
  Solving real generalised eigenvalue problem by standard LAPACK (fast)
  Determining occupation numbers for Kohn-Sham eigenstates.
  | Chemical potential (Fermi level) in eV                 : -.17081545E+01
  | Error in electron count due to remaining E_F inaccuracy: 0.00000000E+00
  | Maximum occupation number of highest empty state:  0.00E+00

  Highest occupied state (VBM) at     -1.70815449 eV
  | Occupation number:      1.00000000

  Lowest unoccupied state (CBM) at    -1.70815449 eV
  | Occupation number:      1.00000000

  Overall HOMO-LUMO gap:      0.00000000 eV.

  Total energy components:
  | Sum of eigenvalues            :        -251.75876328 Ha       -6850.70450889 eV
  | XC energy correction          :         -56.20125792 Ha       -1529.31403863 eV
  | XC potential correction       :          71.84721897 Ha        1955.06230077 eV
  | Free-atom electrostatic energy:        -214.31252779 Ha       -5831.74059678 eV
  | Hartree energy correction     :          -9.42206705 Ha        -256.38748935 eV
  | van der Waals energy corr.    :           0.00000000 Ha           0.00000000 eV
  | Entropy correction            :          -0.00010367 Ha          -0.00282095 eV
  | ---------------------------
  | Total energy                  :        -459.84739707 Ha      -12513.08433286 eV
  | Total energy, T -> 0          :        -459.84750073 Ha      -12513.08715381 eV  <-- do not rely on this value for anything but (periodic) metals
  | Electronic free energy        :        -459.84760440 Ha      -12513.08997476 eV

  Derived energy quantities:
  | Kinetic energy                :         458.69054358 Ha       12481.60474773 eV
  | Electrostatic energy          :        -862.33668272 Ha      -23465.37504197 eV
  | Energy correction for multipole
  | error in Hartree potential    :          -0.00856308 Ha          -0.23301317 eV
  | Sum of eigenvalues per atom                           :        -360.56339520 eV
  | Total energy (T->0) per atom                          :        -658.58353441 eV  <-- do not rely on this value for anything but (periodic) metals
  | Electronic free energy per atom                       :        -658.58368288 eV

  Self-consistency convergence accuracy:
  | Change of charge density      : 0.6972E-02
  | Change of sum of eigenvalues  : -.1875E+01 eV
  | Change of total energy        : 0.7042E-03 eV

  End self-consistency iteration #     7       :  max(cpu_time)    wall_clock(cpu1)
  | Time for this iteration                    :        3.308 s           3.308 s
  | Charge density update                      :        1.071 s           1.071 s
  | Density mixing                             :        0.016 s           0.015 s
  | Hartree multipole update                   :        0.006 s           0.006 s
  | Hartree multipole summation                :        0.512 s           0.512 s
  | Integration                                :        1.612 s           1.612 s
  | Solution of K.-S. eqns.                    :        0.091 s           0.091 s
  | Total energy evaluation                    :        0.001 s           0.000 s
------------------------------------------------------------

------------------------------------------------------------
          Begin self-consistency iteration #    8

  Date     :  20150727, Time     :  123427.872
------------------------------------------------------------
  Evaluating new KS density.
  Integration grid: deviation in total charge (<rho> - N_e) =   1.421085E-14
  Pulay mixing of updated and previous charge densities.

  Evaluating partitioned Hartree potential by multipole expansion.
  | Analytical far-field extrapolation by fixed multipoles:
  | Hartree multipole sum: apparent total charge =  -0.766260E-05
  Summing up the Hartree potential.
  Time summed over all CPUs for potential: real work        4.067 s, elapsed        4.085 s
  | RMS charge density error from multipole expansion :   0.196721E-01

  Integrating Hamiltonian matrix: batch-based integration.
  Time summed over all CPUs for integration: real work       12.703 s, elapsed       12.886 s

  Updating Kohn-Sham eigenvalues, eigenvectors, occupation numbers, and Fermi level.
  Solving generalized eigenproblem
  Updating Kohn-Sham eigenvalues and eigenfunctions.
  Solving real generalised eigenvalue problem by standard LAPACK (fast)
  Determining occupation numbers for Kohn-Sham eigenstates.
  | Chemical potential (Fermi level) in eV                 : -.17159378E+01
  | Error in electron count due to remaining E_F inaccuracy: 0.19060522E-08
  | Maximum occupation number of highest empty state:  0.00E+00

  Highest occupied state (VBM) at     -1.71593782 eV
  | Occupation number:      1.00000000

  Lowest unoccupied state (CBM) at    -0.95499105 eV
  | Occupation number:      0.00000000

  Overall HOMO-LUMO gap:      0.76094677 eV.

  Total energy components:
  | Sum of eigenvalues            :        -251.80366179 Ha       -6851.92625934 eV
  | XC energy correction          :         -56.19815680 Ha       -1529.22965278 eV
  | XC potential correction       :          71.84300034 Ha        1954.94750599 eV
  | Free-atom electrostatic energy:        -214.31252779 Ha       -5831.74059678 eV
  | Hartree energy correction     :          -9.37604506 Ha        -255.13516711 eV
  | van der Waals energy corr.    :           0.00000000 Ha           0.00000000 eV
  | Entropy correction            :          -0.00010367 Ha          -0.00282095 eV
  | ---------------------------
  | Total energy                  :        -459.84739108 Ha      -12513.08417003 eV
  | Total energy, T -> 0          :        -459.84749475 Ha      -12513.08699098 eV  <-- do not rely on this value for anything but (periodic) metals
  | Electronic free energy        :        -459.84759842 Ha      -12513.08981192 eV

  Derived energy quantities:
  | Kinetic energy                :         458.70807087 Ha       12482.08168983 eV
  | Electrostatic energy          :        -862.35730516 Ha      -23465.93620707 eV
  | Energy correction for multipole
  | error in Hartree potential    :          -0.00872233 Ha          -0.23734668 eV
  | Sum of eigenvalues per atom                           :        -360.62769786 eV
  | Total energy (T->0) per atom                          :        -658.58352584 eV  <-- do not rely on this value for anything but (periodic) metals
  | Electronic free energy per atom                       :        -658.58367431 eV

  Self-consistency convergence accuracy:
  | Change of charge density      : 0.3092E-02
  | Change of sum of eigenvalues  : -.1222E+01 eV
  | Change of total energy        : 0.1628E-03 eV

  End self-consistency iteration #     8       :  max(cpu_time)    wall_clock(cpu1)
  | Time for this iteration                    :        3.310 s           3.311 s
  | Charge density update                      :        1.072 s           1.072 s
  | Density mixing                             :        0.017 s           0.017 s
  | Hartree multipole update                   :        0.006 s           0.006 s
  | Hartree multipole summation                :        0.512 s           0.511 s
[...]
   Hellmann-Feynman + Multipole  : -.107005E+01 -.557705E+00 0.194734E+01
   Pulay + GGA                   : -.449958E-01 -.163627E-01 0.614607E-01
   Van der Waals               : -.174480E-02 -.433465E-02 -.327495E-02
   ----------------------------------------------------------------
   Total forces(  16)            : -.111679E+01 -.578402E+00 0.200552E+01
  atom #   17
   Hellmann-Feynman + Multipole  : -.121272E+02 -.264829E+01 0.278272E+01
   Pulay + GGA                   : 0.126001E+02 0.402487E+01 -.368403E+01
   Van der Waals               : 0.333398E-03 -.369817E-02 -.203789E-02
   ----------------------------------------------------------------
   Total forces(  17)            : 0.473238E+00 0.137288E+01 -.903345E+00
  atom #   18
   Hellmann-Feynman + Multipole  : 0.189693E-01 -.226970E+00 0.263414E+00
   Pulay + GGA                   : 0.801642E-01 -.347456E-01 0.195495E-01
   Van der Waals               : 0.395331E-03 -.330436E-02 -.363162E-02
   ----------------------------------------------------------------
   Total forces(  18)            : 0.995289E-01 -.265020E+00 0.279332E+00
  atom #   19
   Hellmann-Feynman + Multipole  : -.716776E+00 -.124765E+01 0.563947E+00
   Pulay + GGA                   : 0.493268E-01 0.103894E+00 -.562989E-01
   Van der Waals               : 0.853054E-03 -.691221E-02 0.224381E-02
   ----------------------------------------------------------------
   Total forces(  19)            : -.666596E+00 -.115067E+01 0.509892E+00
  Timings for vdw_correction_hirshfeld (Tkatchenko-Scheffler 2009):
  | CPU time:        8.854 s, Wall clock time:        8.853 s.
  Removing unitary transformations (pure translations, rotations) from forces on atoms.
  Atomic forces before filtering:
  | Net force on center of mass :  0.603736E-02 -.477661E-02 0.785484E-03 eV/A
  | Net torque on center of mass:  -.131330E-01 0.117870E-01 -.710133E-02 eV
  Atomic forces after filtering:
  | Net force on center of mass :  0.446015E-15 0.178406E-15 0.267609E-15 eV/A
  | Net torque on center of mass:  0.226580E-14 0.944085E-15 -.151054E-14 eV
 
  Energy and forces in a compact form:
  | Total energy uncorrected      :         -0.125132244576971E+05 eV
  | Total energy corrected        :         -0.125132272786450E+05 eV  <-- do not rely on this value for anything but (periodic) metals
  | Electronic free energy        :         -0.125132300995929E+05 eV
  Total atomic forces (unitary forces cleaned) [eV/Ang]:
  |   1         -0.146926227983676E+01          0.605027871298356E+00          0.114355404064881E+00
  |   2          0.592488630587339E-01         -0.471202456824052E+00          0.163731433502900E+00
  |   3          0.962497168723639E+00          0.983092900745761E-02          0.477397823691079E-01
  |   4          0.166543696626910E+00          0.460946864032542E-01         -0.445274398673420E+00
  |   5          0.389789866883138E+00         -0.968329554820175E+00          0.257841303918148E+01
  |   6          0.151238181922567E+00          0.446153131372023E+00          0.314328599678561E+00
  |   7         -0.336485939890412E+00          0.329596115425146E+00         -0.265797762591291E+01
  |   8          0.160642861983727E+01         -0.471721711352770E+00          0.754596498742867E+00
  |   9         -0.235313750750831E+00         -0.497174513621174E-01         -0.418041134303172E+00
  |  10         -0.132615145837789E+01          0.668681016206079E+00         -0.323994098593777E+00
  |  11         -0.128772658585162E+01          0.112727182382779E+01          0.127526523940928E+01
  |  12         -0.316044260161179E+00          0.233136852402752E+00         -0.165185649729113E+01
  |  13          0.137740528108141E+01         -0.146065488902587E+01          0.475460072200236E+00
  |  14          0.151037252507733E+01          0.579995440253949E+00         -0.247484170592261E+01
  |  15         -0.398341832890232E-01         -0.389189325120331E-02          0.355677162899586E+00
  |  16         -0.111737656642611E+01         -0.578329065739958E+00          0.200566642597171E+01
  |  17          0.472750377034647E+00          0.137312487915216E+01         -0.903131595999002E+00
  |  18          0.990368872932720E-01         -0.264740948629718E+00          0.279596297695976E+00
  |  19         -0.667116442955093E+00         -0.115032477434311E+01          0.510287100979429E+00
 
  ------------------------------------ 
  Start decomposition of the XC Energy 
  ------------------------------------ 
  Hartree-Fock part   :          0.000000000 Ha              0.000000000 eV
  ------------------------------------ 
  X Energy            :        -54.206256402 Ha          -1475.027285273 eV
  C Energy GGA        :         -1.992150586 Ha            -54.209175577 eV
  Total XC Energy     :        -56.198406988 Ha          -1529.236460850 eV
  LDA X and C from self-consistent density 
  X Energy LDA        :        -48.878250587 Ha          -1330.044870420 eV
  C Energy LDA        :         -4.000833115 Ha           -108.868208208 eV
  ------------------------------------ 
  End decomposition of the XC Energy 
  ------------------------------------ 
  Performing Hirshfeld analysis of fragment charges and moments.
  ----------------------------------------------------------------------
  | Atom     1: O
  |   Hirshfeld charge        :     -0.13354391
  |   Free atom volume        :     23.95238533
  |   Hirshfeld volume        :     21.66361341
  |   Hirshfeld dipole vector :      0.00909927       0.03643187       0.01460055
  |   Hirshfeld dipole moment :      0.04028963
  |   Hirshfeld second moments:      0.07505207      -0.00666303      -0.00899913
  |                                 -0.00666303       0.03997377      -0.02399692
  |                                 -0.00899913      -0.02399692       0.07059401
  ----------------------------------------------------------------------
  | Atom     2: H
  |   Hirshfeld charge        :      0.11786521
  |   Free atom volume        :     10.44207651
  |   Hirshfeld volume        :      9.21009121
  |   Hirshfeld dipole vector :      0.00217294       0.01607779      -0.00679189
  |   Hirshfeld dipole moment :      0.01758825
  |   Hirshfeld second moments:      0.05454244       0.02164782      -0.00036641
  |                                  0.02164782       0.03357357       0.01331579
  |                                 -0.00036641       0.01331579       0.06958812
  ----------------------------------------------------------------------
  | Atom     3: H
  |   Hirshfeld charge        :      0.10304472
  |   Free atom volume        :     10.44207651
  |   Hirshfeld volume        :      9.51675928
  |   Hirshfeld dipole vector :      0.01370839       0.01393784       0.00155030
  |   Hirshfeld dipole moment :      0.01961089
  |   Hirshfeld second moments:      0.02106092      -0.01696330      -0.00125582
  |                                 -0.01696330       0.05722765       0.00492117
  |                                 -0.00125582       0.00492117       0.06036788
  ----------------------------------------------------------------------
  | Atom     4: H
  |   Hirshfeld charge        :      0.12109526
  |   Free atom volume        :     10.44207651
  |   Hirshfeld volume        :     11.52252193
  |   Hirshfeld dipole vector :     -0.00787157       0.01001659       0.02678771
  |   Hirshfeld dipole moment :      0.02966269
  |   Hirshfeld second moments:      0.03088738       0.00232477       0.01711305
  |                                  0.00232477       0.03480370       0.01116215
  |                                  0.01711305       0.01116215      -0.01225906
  ----------------------------------------------------------------------
  | Atom     5: O
  |   Hirshfeld charge        :     -0.21321437
  |   Free atom volume        :     23.95238533
  |   Hirshfeld volume        :     21.71259103
  |   Hirshfeld dipole vector :      0.03504174       0.00616352      -0.01881449
  |   Hirshfeld dipole moment :      0.04024795
  |   Hirshfeld second moments:      0.01180372      -0.00203335       0.03394335
  |                                 -0.00203335       0.06282457       0.00414615
  |                                  0.03394335       0.00414615       0.06838531
  ----------------------------------------------------------------------
  | Atom     6: H
  |   Hirshfeld charge        :      0.10455149
  |   Free atom volume        :     10.44207651
  |   Hirshfeld volume        :      9.25298781
  |   Hirshfeld dipole vector :      0.02339984       0.02891970       0.00720019
  |   Hirshfeld dipole moment :      0.03789122
  |   Hirshfeld second moments:      0.04670560      -0.02019485       0.00687180
  |                                 -0.02019485       0.04392906      -0.01825891
  |                                  0.00687180      -0.01825891       0.06152443
  ----------------------------------------------------------------------
  | Atom     7: H
  |   Hirshfeld charge        :      0.13042313
  |   Free atom volume        :     10.44207651
  |   Hirshfeld volume        :      9.56567013
  |   Hirshfeld dipole vector :     -0.01195468       0.00834465      -0.08000842
  |   Hirshfeld dipole moment :      0.08132585
  |   Hirshfeld second moments:      0.05529611       0.00051187       0.01140579
  |                                  0.00051187       0.07406034       0.00826085
  |                                  0.01140579       0.00826085       0.05020579
  ----------------------------------------------------------------------
  | Atom     8: O
  |   Hirshfeld charge        :     -0.23633145
  |   Free atom volume        :     23.95238533
  |   Hirshfeld volume        :     22.57326614
  |   Hirshfeld dipole vector :     -0.01322321      -0.01645194       0.03705450
  |   Hirshfeld dipole moment :      0.04264453
  |   Hirshfeld second moments:      0.05052897      -0.01992951       0.00848155
  |                                 -0.01992951       0.02688670       0.03716821
  |                                  0.00848155       0.03716821      -0.01238673
  ----------------------------------------------------------------------
  | Atom     9: H
  |   Hirshfeld charge        :      0.09054942
  |   Free atom volume        :     10.44207651
  |   Hirshfeld volume        :      9.78542871
  |   Hirshfeld dipole vector :     -0.00039535       0.02400802       0.03430960
  |   Hirshfeld dipole moment :      0.04187708
  |   Hirshfeld second moments:      0.06430578      -0.00474889       0.00416659
  |                                 -0.00474889       0.03627161      -0.00616606
  |                                  0.00416659      -0.00616606       0.01909232
  ----------------------------------------------------------------------
  | Atom    10: H
  |   Hirshfeld charge        :      0.10788850
  |   Free atom volume        :     10.44207651
  |   Hirshfeld volume        :     11.26181869
  |   Hirshfeld dipole vector :      0.05031262      -0.03709590       0.00623458
  |   Hirshfeld dipole moment :      0.06281987
  |   Hirshfeld second moments:      0.02560162       0.00315415       0.00013797
  |                                  0.00315415       0.02358885       0.02154994
  |                                  0.00013797       0.02154994       0.02579675
  ----------------------------------------------------------------------
  | Atom    11: O
  |   Hirshfeld charge        :     -0.26359242
  |   Free atom volume        :     23.95238533
  |   Hirshfeld volume        :     23.68341556
  |   Hirshfeld dipole vector :      0.01946905       0.05500104       0.01164228
  |   Hirshfeld dipole moment :      0.05949539
  |   Hirshfeld second moments:     -0.00453662      -0.03920482       0.00045948
  |                                 -0.03920482      -0.05229020      -0.03145994
  |                                  0.00045948      -0.03145994       0.03240671
  ----------------------------------------------------------------------
  | Atom    12: H
  |   Hirshfeld charge        :      0.09029270
  |   Free atom volume        :     10.44207651
  |   Hirshfeld volume        :     12.07557335
  |   Hirshfeld dipole vector :      0.01877533      -0.00266768       0.06357924
  |   Hirshfeld dipole moment :      0.06634718
  |   Hirshfeld second moments:      0.01588456      -0.02101735      -0.00202090
  |                                 -0.02101735      -0.00535343      -0.02027648
  |                                 -0.00202090      -0.02027648       0.01206999
  ----------------------------------------------------------------------
  | Atom    13: H
  |   Hirshfeld charge        :      0.09883955
  |   Free atom volume        :     10.44207651
  |   Hirshfeld volume        :     11.10258744
  |   Hirshfeld dipole vector :     -0.03601998       0.05678060      -0.02218031
  |   Hirshfeld dipole moment :      0.07080566
  |   Hirshfeld second moments:      0.02154165      -0.01218175      -0.00448055
  |                                 -0.01218175      -0.00197231      -0.01116894
  |                                 -0.00448055      -0.01116894       0.04782306
  ----------------------------------------------------------------------
  | Atom    14: O
  |   Hirshfeld charge        :     -0.23407839
  |   Free atom volume        :     23.95238533
  |   Hirshfeld volume        :     21.64816198
  |   Hirshfeld dipole vector :     -0.01036959       0.00188604       0.00849061
  |   Hirshfeld dipole moment :      0.01353425
  |   Hirshfeld second moments:      0.05885396       0.02126880       0.00222768
  |                                  0.02126880       0.03696540       0.00618547
  |                                  0.00222768       0.00618547       0.04293113
  ----------------------------------------------------------------------
  | Atom    15: H
  |   Hirshfeld charge        :      0.10973009
  |   Free atom volume        :     10.44207651
  |   Hirshfeld volume        :     10.79927786
  |   Hirshfeld dipole vector :      0.04646990       0.03569575       0.01612489
  |   Hirshfeld dipole moment :      0.06077540
  |   Hirshfeld second moments:      0.02949235      -0.00003003      -0.00489803
  |                                 -0.00003003       0.02854527      -0.00419506
  |                                 -0.00489803      -0.00419506       0.04388618
  ----------------------------------------------------------------------
  | Atom    16: H
  |   Hirshfeld charge        :      0.08079745
  |   Free atom volume        :     10.44207651
  |   Hirshfeld volume        :      9.61276295
  |   Hirshfeld dipole vector :     -0.02350525      -0.00751045       0.01674271
  |   Hirshfeld dipole moment :      0.02981982
  |   Hirshfeld second moments:      0.04358034      -0.00386538       0.02137685
  |                                 -0.00386538       0.03906146       0.00969172
  |                                  0.02137685       0.00969172       0.04224143
  ----------------------------------------------------------------------
  | Atom    17: O
  |   Hirshfeld charge        :     -0.26857685
  |   Free atom volume        :     23.95238533
  |   Hirshfeld volume        :     22.62392738
  |   Hirshfeld dipole vector :      0.03347213      -0.01432332      -0.02567967
  |   Hirshfeld dipole moment :      0.04455318
  |   Hirshfeld second moments:      0.00368350       0.00701840       0.02940191
  |                                  0.00701840       0.04692273      -0.02960763
  |                                  0.02940191      -0.02960763      -0.01219500
  ----------------------------------------------------------------------
  | Atom    18: H
  |   Hirshfeld charge        :      0.08678212
  |   Free atom volume        :     10.44207651
  |   Hirshfeld volume        :      9.27437336
  |   Hirshfeld dipole vector :      0.04338183      -0.02539702       0.00784571
  |   Hirshfeld dipole moment :      0.05087777
  |   Hirshfeld second moments:      0.03608280       0.01982893      -0.00764884
  |                                  0.01982893       0.06330199      -0.00253442
  |                                 -0.00764884      -0.00253442       0.04618434
  ----------------------------------------------------------------------
  | Atom    19: H
  |   Hirshfeld charge        :      0.10749854
  |   Free atom volume        :     10.44207651
  |   Hirshfeld volume        :     10.28053435
  |   Hirshfeld dipole vector :      0.02501612       0.06358450      -0.03379083
  |   Hirshfeld dipole moment :      0.07622739
  |   Hirshfeld second moments:      0.04905094      -0.00765580       0.01298887
  |                                 -0.00765580       0.04746085      -0.00217064
  |                                  0.01298887      -0.00217064       0.02763330
  ----------------------------------------------------------------------


------------------------------------------------------------------------------
  Final output of selected total energy values:

  The following output summarizes some interesting total energy values
  at the end of a run (AFTER all relaxation, molecular dynamics, etc.).

  | Total energy of the DFT / Hartree-Fock s.c.f. calculation      :         -12513.224457697 eV
  | Final zero-broadening corrected energy (caution - metals only) :         -12513.227278645 eV
  | For reference only, the value of 1 Hartree used in FHI-aims is :             27.211384500 eV

  Before relying on these values, please be sure to understand exactly which
  total energy value is referred to by a given number. Different objects may
  all carry the same name 'total energy'. Definitions:

  Total energy of the DFT / Hartree-Fock s.c.f. calculation:
  | Note that this energy does not include ANY quantities calculated after the
  | s.c.f. cycle, in particular not ANY RPA, MP2, etc. many-body perturbation terms.

  Final zero-broadening corrected energy:
  | For metallic systems only, a broadening of the occupation numbers at the Fermi
  | level can be extrapolated back to zero broadening by an electron-gas inspired
  | formula. For all systems that are not real metals, this value can be
  | meaningless and should be avoided.

------------------------------------------------------------------------------

------------------------------------------------------------
          Leaving FHI-aims.
          Date     :  20150727, Time     :  123504.295

          Computational steps:
          | Number of self-consistency cycles          :           16

          Detailed time accounting                     :  max(cpu_time)    wall_clock(cpu1)
          | Total time                                 :       63.551 s          63.593 s
          | Preparation time                           :        0.173 s           0.595 s
          | Grid partitioning                          :        0.221 s           0.220 s
          | Preloading free-atom quantities on grid    :        0.014 s           0.013 s
          | Free-atom superposition energy             :        0.097 s           0.097 s
          | Total time for integrations                :       28.300 s          28.299 s
          | Total time for solution of K.-S. equations :        1.791 s           1.789 s
          | Total time for density & force components  :       21.811 s          21.809 s
          | Total time for mixing                      :        0.263 s           0.262 s
          | Total time for Hartree multipole update    :        0.102 s           0.101 s
          | Total time for Hartree multipole sum       :        9.913 s           9.912 s
          | Total time for total energy evaluation     :        0.006 s           0.003 s
          | Total time for scaled ZORA corrections     :        0.000 s           0.000 s
          | Total time for TS (2009) vdW correction    :        0.079 s           0.080 s

          Have a nice day.
------------------------------------------------------------
