  MPI-parallelism will be employed.
------------------------------------------------------------
          Invoking FHI-aims ...
          Version 081213
          Compiled on 2013/08/29 at 17:41:06 on host generoso.

          When using FHI-aims, please cite the following reference:

          Volker Blum, Ralf Gehrke, Felix Hanke, Paula Havu,
          Ville Havu, Xinguo Ren, Karsten Reuter, and Matthias Scheffler,
          'Ab Initio Molecular Simulations with Numeric Atom-Centered Orbitals: FHI-aims',
          Computer Physics Communications 180, 2175-2196 (2009)

          For any questions about FHI-aims, please visit the aimsclub website
          with its forums and wiki. Contributions to both the forums and the
          wiki are warmly encouraged - they are for you, and everyone is welcome there.

------------------------------------------------------------

  Date     :  20150727, Time     :  130314.915
  Time zero on CPU 1             :   0.449920000000000E-01  s.
  Internal wall clock time zero  :           207234194.915  s.

  Using        8 parallel tasks.
  Task        0 on host gen59 reporting.
  Task        1 on host gen59 reporting.
  Task        2 on host gen59 reporting.
  Task        3 on host gen59 reporting.
  Task        4 on host gen59 reporting.
  Task        5 on host gen59 reporting.
  Task        6 on host gen59 reporting.
  Task        7 on host gen59 reporting.

  Performing system and environment tests:
  | Environment variable OMP_NUM_THREADS correctly set to 1.
  | Checking for scalapack...
  | No scalapack compiled in.

  Obtaining array dimensions for all initial allocations:
  
  -----------------------------------------------------------------------
  Parsing control.in (first pass over file, find array dimensions only).
  The contents of control.in will be repeated verbatim below
  unless switched off by setting 'verbatim_writeout .false.' .
  in the first line of control.in .
  -----------------------------------------------------------------------
  
  #########################################################################################
  #
  #  Volker Blum, FHI 2008 : Test run input file control.in
  #
  #########################################################################################
  #
  #  Physical model
  #
    xc                 rpbe
    spin               none
    relativistic       atomic_zora scalar
    charge             0.
   vdw_correction_hirshfeld
  #
  #  SCF convergence
  #
    occupation_type    gaussian 0.01
    mixer              pulay
      n_max_pulay        10
      charge_mix_param   0.1
    sc_accuracy_rho    5E-5
    sc_accuracy_eev    5E-3
    sc_accuracy_etot   5E-6
    sc_iter_limit      3000
  #
  #  Eigenvalue solver
  #
    KS_method          lapack
      empty_states       8
      basis_threshold    0.e-5
  #
  #  Efficiency
  #
  #   all previous settings are now default, except stratmann still
  #   undecided. Continue to handle stratmann with care, if at all.
  #
  #  partition_type stratmann
    partition_type rho_r2
  #  hartree_partition_type stratmann
  #
  #  Oprions for large clusters (100's of atoms: memory saving / better scaling)
  #
  # for periodic systems:
  #
    density_update_method orbital
    packed_matrix_format none
  #  k_grid 6 6 6
  #  output k_eigenvalue 1
  #  distributed_spline_storage .true.
  #
  #  Relaxation
  #
  #  relax_geometry   bfgs 5.e-3
    sc_accuracy_forces 5.E-4
    final_forces_cleaned .true.
  #
  #  Output options
  #
  #  output mulliken
    output Hirshfeld
  #  output dipole
  
  #harmonic_length_scale 0.001
  
  ################################################################################
  #
  #  FHI-aims code project
  #  VB, Fritz-Haber Institut, 2007
  #
  #  Suggested "safe" defaults for H atom (to be pasted into control.in file)
  #  Basis constructed for a non-relativistic H2 molecule using the
  #  PW-LDA functional.
  #
  ################################################################################
    species        H
  #     global species definitions
      nucleus             1
      cut_pot             4.0  2.0  1.0
      cut_free_atom       finite 8.0
      logarithmic         0.00010000 100.00  1.0123
      basis_dep_cutoff    1d-4  # 1d-4 is safe default - please check 5d-4 if you wish!
      radial_base         24 7.0
      radial_multiplier   2
      angular_grids       specified
        division   0.2783  110
        division   0.3822  194
        division   0.5626  302
  #      division   0.5922  434
  #      division   0.6227  590
  #      division   0.7206  770
        outer_grid  302
      l_hartree           4
  ################################################################################
  #
  #  Definition of "minimal" basis
  #
  ################################################################################
  #     valence basis states
      valence      1  s   1.
  #     ion occupancy
      ion_occ      1  s   0.5
  ################################################################################
  #
  #  Suggested additional basis functions. For production calculations,
  #  uncomment them one after another (the most important basis functions are
  #  listed first).
  #
  ################################################################################
  #  "First tier" - improvements: -1014.90 meV to -62.69 meV
       hydro 2 s 2.1
       hydro 2 p 3.5
  #  "Second tier" - improvements: -12.89 meV to -1.83 meV
       hydro 1 s 0.85
       hydro 2 p 3.7
       hydro 2 s 1.2
       hydro 3 d 7
  #  "Third tier" - improvements: -0.25 meV to -0.12 meV
  #     hydro 4 f 11.2
  #     hydro 3 p 4.8
  #     hydro 4 d 9
  #     hydro 3 s 3.2
  
  ################################################################################
  #
  #  FHI-aims code project
  #  VB, Fritz-Haber Institut, 2007
  #
  #  Suggested "safe" defaults for O atom (to be pasted into control.in file)
  #  All values have been tested for a non-relativistic, non-spinpolarized O2
  #  molecule using the PW-LDA functional. Validity for PBE is expected.
  #
  #  Constructed for dimers: 1.0 A, 1.208 A, 1.5 A, 2.0 A, 3.0 A
  #
  ################################################################################
    species        O
  #     global species definitions
      nucleus             8
      mass                15.9994
      l_hartree           4
      cut_pot             4.0  2.0  1.0
      cut_free_atom       finite 8.0
      basis_dep_cutoff    1d-4  # 1d-4 is safe default - please check 5d-4 if you wish!
      logarithmic         0.00010000 100.00  1.0123
      radial_base         36 7.0
      radial_multiplier   2
       angular_grids specified
        division   0.4087  110
        division   0.5181  194
        division   0.6184  302
  #      division   0.7315  434
  #      division   0.7934  590
  #      division   0.9656  770
  #      division   1.4041  974
  #      outer_grid 974
        outer_grid 302
  ################################################################################
  #
  #  Definition of "minimal" basis
  #
  ################################################################################
  #     valence basis states
      valence      2  s   2.
      valence      2  p   4.
  #     ion occupancy
      ion_occ      2  s   1.
      ion_occ      2  p   3.
  ################################################################################
  #
  #  Suggested additional basis functions. For production calculations,
  #  uncomment them one after another (the most important basis functions are
  #  listed first).
  #
  ################################################################################
  #  "First tier" - improvements: -699.05 meV to -159.38 meV
       hydro 2 p 1.8
       hydro 3 d 7.6
       hydro 3 s 6.4
  #  "Second tier" - improvements: -49.91 meV to -5.39 meV
       hydro 4 f 11.6
       hydro 3 p 6.2
       hydro 3 d 5.6
       hydro 5 g 17.6
       hydro 1 s 0.75
  #  "Third tier" - improvements: -2.83 meV to -0.50 meV
  #     ionic 2 p auto
  #     hydro 4 f 10.8
  #     hydro 4 d 4.7
  #     hydro 2 s 6.8
  #  "Fourth tier" - improvements: -0.40 meV to -0.12 meV
  #     hydro 3 p 5
  #     hydro 3 s 3.3
  #     hydro 5 g 15.6
  #     hydro 4 f 17.6
  #     hydro 4 d 14
  # Further basis functions - -0.08 meV and below
  #     hydro 3 s 2.1
  #     hydro 4 d 11.6
  #     hydro 3 p 16
  #     hydro 2 s 17.2
  
  
  -----------------------------------------------------------------------
  Completed first pass over input file control.in .
  -----------------------------------------------------------------------
  
  
  -----------------------------------------------------------------------
  Parsing geometry.in (first pass over file, find array dimensions only).
  The contents of geometry.in will be repeated verbatim below
  unless switched off by setting 'verbatim_writeout .false.' .
  in the first line of geometry.in .
  -----------------------------------------------------------------------
  
  atom      -4.053030000      0.065001000     -1.525160000  O
  atom      -4.566710000      0.974813000     -1.912820000  H
  atom      -3.067820000      0.330172000     -1.477310000  H
  atom      -4.370360000     -0.049164000     -0.572274000  H
  atom      -3.818880000      2.024990000      2.187990000  O
  atom      -3.690880000      1.961360000      3.202150000  H
  atom      -4.546490000      2.751300000      2.045370000  H
  atom      -4.066610000      4.258280000     -0.900064000  O
  atom      -3.224110000      3.876870000     -0.569443000  H
  atom      -3.737450000      5.116530000     -1.322720000  H
  
  -----------------------------------------------------------------------
  Completed first pass over input file geometry.in .
  -----------------------------------------------------------------------
  
 
  Basic array size parameters: 
  | Number of species                 :        2
  | Number of atoms                   :       10
  | Max. basis fn. angular momentum   :        4
  | Max. atomic/ionic basis occupied n:        2
  | Max. number of basis fn. types    :        2
  | Max. radial fns per species/type  :        8
  | Max. logarithmic grid size        :     1301
  | Max. radial integration grid size :       73
  | Max. angular integration grid size:      302
  | Max. angular grid division number :        8
  | Radial grid for Hartree potential :     1301
  | Number of spin channels           :        1

------------------------------------------------------------
          Reading file control.in.
------------------------------------------------------------
  XC: Using RPBE gradient-corrected functionals.
  Spin treatment: No spin polarisation.
  Scalar relativistic treatment of kinetic energy: on-site free-atom approximation to ZORA.
  Charge =   0.000000E+00: Neutral system requested explicitly.
  Using non-empirical van der Waals correction (Hirshfeld partitioning):
  Occupation type: Gaussian broadening, width =   0.100000E-01 eV.
  Using pulay charge density mixing.
  Pulay mixing - number of memorized iterations:   10
  Charge density mixing - mixing parameter:     0.1000
  Convergence accuracy of self-consistent charge density: 0.5000E-04
  Convergence accuracy of sum of eigenvalues: 0.5000E-02
  Convergence accuracy of total energy: 0.5000E-05
  Maximum number of s.-c. iterations  :  3000
  Kohn-Sham eigenvalues and eigenfunctions calculated by lapack diagonalisation (D&C).
  Number of empty states per atom:        8
  Threshold for basis singularities: 0.0000E+00
  Partition function in integrals calculations: rho / r^2
 Using packed matrix format           0
  Convergence accuracy of forces: 0.5000E-03
  Cleaning forces before final output.
  Hirshfeld charge analysis will be performed.
 
  Reading configuration options for species H                   .
  | Found nuclear charge :   1.0000
  | Found cutoff potl. onset [A], width [A], scale factor :    4.00000    2.00000    1.00000
  | Found cutoff specification for free atom: Cutoff potential begins at    8.00000 A.
  | Found logarithmic grid data [bohr] : 0.1000E-03 0.1000E+03 0.1012E+01
  | Threshold for basis-dependent cutoff potential is   0.100000E-03
  | Found data for basic radial integration grid :    24 points, outermost radius =    7.000 A
  | Found multiplier for basic radial grid :   2
  | Found angular grid specification: user-specified.
  | Specified grid contains     4 separate shells.
  | Check grid settings after all constraints further below.
  | Found l_max for Hartree potential  :   4
  | Found free-atom valence shell :  1 s   1.000
  | No ionic wave fns used. Skipping ion_occ.
  | Found hydrogenic basis function :  2 s   2.100
  | Found hydrogenic basis function :  2 p   3.500
  | Found hydrogenic basis function :  1 s   0.850
  | Found hydrogenic basis function :  2 p   3.700
  | Found hydrogenic basis function :  2 s   1.200
  | Found hydrogenic basis function :  3 d   7.000
  Species H                   : Missing cutoff potential type.
  Defaulting to exp(1/x)/(1-x)^2 type cutoff potential.
  Species H : On-site basis accuracy parameter (for Gram-Schmidt orthonormalisation) not specified.
  Using default value basis_acc =  0.1000000E-03.
  Species H                   : Using default innermost maximum threshold i_radial=  2 for radial functions.
  Species H                   : Basic radial grid will be enhanced according to radial_multiplier =   2, to contain    49 grid points.
 
  Reading configuration options for species O                   .
  | Found nuclear charge :   8.0000
  | Found atomic mass :    15.9994000000000      amu
  | Found l_max for Hartree potential  :   4
  | Found cutoff potl. onset [A], width [A], scale factor :    4.00000    2.00000    1.00000
  | Found cutoff specification for free atom: Cutoff potential begins at    8.00000 A.
  | Threshold for basis-dependent cutoff potential is   0.100000E-03
  | Found logarithmic grid data [bohr] : 0.1000E-03 0.1000E+03 0.1012E+01
  | Found data for basic radial integration grid :    36 points, outermost radius =    7.000 A
  | Found multiplier for basic radial grid :   2
  | Found angular grid specification: user-specified.
  | Specified grid contains     4 separate shells.
  | Check grid settings after all constraints further below.
  | Found free-atom valence shell :  2 s   2.000
  | Found free-atom valence shell :  2 p   4.000
  | No ionic wave fns used. Skipping ion_occ.
  | No ionic wave fns used. Skipping ion_occ.
  | Found hydrogenic basis function :  2 p   1.800
  | Found hydrogenic basis function :  3 d   7.600
  | Found hydrogenic basis function :  3 s   6.400
  | Found hydrogenic basis function :  4 f  11.600
  | Found hydrogenic basis function :  3 p   6.200
  | Found hydrogenic basis function :  3 d   5.600
  | Found hydrogenic basis function :  5 g  17.600
  | Found hydrogenic basis function :  1 s   0.750
  Species O                   : Missing cutoff potential type.
  Defaulting to exp(1/x)/(1-x)^2 type cutoff potential.
  Species O : On-site basis accuracy parameter (for Gram-Schmidt orthonormalisation) not specified.
  Using default value basis_acc =  0.1000000E-03.
  Species O                   : Using default innermost maximum threshold i_radial=  2 for radial functions.
  Species O                   : Basic radial grid will be enhanced according to radial_multiplier =   2, to contain    73 grid points.
 
  Finished reading input file 'control.in'. Consistency checks are next.
 
  Target number of points in a grid batch is not set. Defaulting to  100
  Method for grid partitioning is not set. Defaulting to parallel hash+maxmin partitioning.
  Batch size limit is not set. Defaulting to    200
  By default, will store active basis functions for each batch.
  If in need of memory, prune_basis_once .false. can be used to disable this option.
  communication_type for Hartree potential was not specified.
  Defaulting to calc_hartree .
  Pulay mixer: Number of initial linear mixing iterations not set.
  Defaulting to    0 iterations.
  Work space size for distributed Hartree potential not set.
  Defaulting to   0.200000E+03 MB.
  Algorithm-dependent basis array size parameters:
  | n_max_pulay                         :       10
  Geometry relaxation not requested: no relaxation will be performed.
  Handling of forces: Unphysical translation and rotation will be removed from forces.
  No accuracy limit for integral partition fn. given. Defaulting to 0.1000E-14.
  No threshold value for u(r) in integrations given. Defaulting to 0.1000E-05.
  No accuracy for occupation numbers given. Defaulting to 0.1000E-07.
  No threshold value for occupation numbers given. Defaulting to 0.0000E+00.
  No accuracy for fermi level given. Defaulting to 0.1000E-19.
  Maximum # of iterations to find E_F not set. Defaulting to  200.
  Will not use alltoall communication since running on < 1024 CPUs.
  Partitioning for Hartree potential was not defined. Using partition_type for integrals.
  | Reporting present value of keyword multip_moments_threshold  :       0.10000000E-09
  | This value may affect high angular momentum components of the Hartree potential in periodic systems.
  No q(lm)/r^(l+1) cutoff set for long-range Hartree potential.
  | Using default value of  0.100000E-09 .
  | Verify using the multipole_threshold keyword.
  Defaulting to new monopole extrapolation.
  Density update method: Loop over occupied states selected for charge density update.
------------------------------------------------------------


------------------------------------------------------------
          Reading geometry description geometry.in.
------------------------------------------------------------
  Input structure read successfully.
  The structure contains       10 atoms,  and a total of         31.000 electrons.

  Input geometry:
  | No unit cell requested.
  | Atomic structure:
  |       Atom                x [A]            y [A]            z [A]
  |    1: Species O             -4.053030         0.065001        -1.525160
  |    2: Species H             -4.566710         0.974813        -1.912820
  |    3: Species H             -3.067820         0.330172        -1.477310
  |    4: Species H             -4.370360        -0.049164        -0.572274
  |    5: Species O             -3.818880         2.024990         2.187990
  |    6: Species H             -3.690880         1.961360         3.202150
  |    7: Species H             -4.546490         2.751300         2.045370
  |    8: Species O             -4.066610         4.258280        -0.900064
  |    9: Species H             -3.224110         3.876870        -0.569443
  |   10: Species H             -3.737450         5.116530        -1.322720
  |

  | The smallest distance between any two atoms is         0.98213547 AA.
  |
  | The first atom of this pair is atom number                      8 .
  | The second atom of this pair is atom number                     9 .

  Structure-dependent array size parameters: 
  | Maximum number of distinct radial functions  :       18
  | Maximum number of basis functions            :      222
  | Number of Kohn-Sham states (occupied + empty):       56
------------------------------------------------------------

------------------------------------------------------------
          Preparing all fixed parts of the calculation.
------------------------------------------------------------
  Determining machine precision:
    2.225073858507201E-308
  Setting up grids for atomic and cluster calculations.

  Creating wave function, potential, and density for free atoms.

  Species: H

  List of occupied orbitals and eigenvalues:
    n    l              occ      energy [Ha]    energy [eV]
    1    0           1.0000        -0.241408        -6.5691


  Species: O

  List of occupied orbitals and eigenvalues:
    n    l              occ      energy [Ha]    energy [eV]
    1    0           2.0000       -18.944147      -515.4965
    2    0           2.0000        -0.883529       -24.0421
    2    1           4.0000        -0.330176        -8.9845

  Creating fixed part of basis set: Ionic, confined, hydrogenic.
 
  H                    hydrogenic:
 
  List of hydrogenic basis orbitals: 
    n    l      effective z      eigenvalue [eV]  inner max. [A]     outer max. [A]     outer radius [A]   
    2    0         2.100000       -14.9965           0.193241           1.317192           5.372934
    2    1         3.500000       -41.6672           0.602363           0.602363           4.056010
    1    0         0.850000        -9.8292           0.624864           0.624864           5.372934
    2    1         3.700000       -46.5653           0.573616           0.573616           3.909951
    2    0         1.200000        -4.5995           0.334977           2.228160           5.505921
    3    2         7.000000       -74.0753           0.680692           0.680692           3.769152
 
 
  O                    hydrogenic:
 
  List of hydrogenic basis orbitals: 
    n    l      effective z      eigenvalue [eV]  inner max. [A]     outer max. [A]     outer radius [A]   
    2    1         1.800000       -11.0118           1.178546           1.178546           5.432516
    3    2         7.600000       -87.3182           0.624117           0.624117           3.541422
    3    0         6.400000       -61.9209           0.061166           1.081887           4.306510
    4    3        11.600000      -114.4238           0.731621           0.731621           3.584982
    3    1         6.200000       -58.1113           0.255677           1.030255           4.306510
    3    2         5.600000       -47.4081           0.847222           0.847222           4.413102
    5    4        17.600000      -168.5799           0.749730           0.749730           3.372413
    1    0         0.750000        -7.6499           0.705275           0.705275           5.366508
 

  Adding cutoff potential to free-atom effective potential.
  Creating atomic-like basis functions for current effective potential.

  Species H                   :

  List of atomic basis orbitals and eigenvalues:
    n    l      energy [Ha]    energy [eV]    outer radius [A]
    1    0        -0.241374        -6.5681       5.372934


  Species O                   :

  List of atomic basis orbitals and eigenvalues:
    n    l      energy [Ha]    energy [eV]    outer radius [A]
    1    0       -18.944147      -515.4965       1.415745
    2    0        -0.883529       -24.0421       5.048305
    2    1        -0.330173        -8.9845       5.301302

  Assembling full basis from fixed parts.
  | Species H :   atomic orbital   1 s accepted.
  | Species H :    hydro orbital   2 s accepted.
  | Species H :    hydro orbital   1 s accepted.
  | Species H :    hydro orbital   2 s accepted.
  | Species H :    hydro orbital   2 p accepted.
  | Species H :    hydro orbital   2 p accepted.
  | Species H :    hydro orbital   3 d accepted.
  | Species O :   atomic orbital   1 s accepted.
  | Species O :    hydro orbital   3 s accepted.
  | Species O :   atomic orbital   2 s accepted.
  | Species O :    hydro orbital   1 s accepted.
  | Species O :    hydro orbital   3 p accepted.
  | Species O :   atomic orbital   2 p accepted.
  | Species O :    hydro orbital   2 p accepted.
  | Species O :    hydro orbital   3 d accepted.
  | Species O :    hydro orbital   3 d accepted.
  | Species O :    hydro orbital   4 f accepted.
  | Species O :    hydro orbital   5 g accepted.
 
  Basis size parameters after reduction:
  | Total number of radial functions:       18
  | Total number of basis functions :      222
 
  Testing on-site integration grid accuracy.
  |  Species  Function  <phi|h_atom|phi> (log., in eV)  <phi|h_atom|phi> (rad., in eV)
           1        1                 -6.5683835025                 -6.5684759159
           1        2                 13.3711789951                 13.3708738703
           1        3                 23.6590910787                 23.6532055418
           1        4                 16.2963827186                 16.1870710655 ***
           1        5                 28.7627214838                 28.7627215090
           1        6                 59.5965249172                 59.5965950857
           1        7                 60.2220506392                 60.2220503827
           2        8               -515.4964576505               -515.4964530710
           2        9                 15.3030791347                 15.3030722972
           2       10                -21.7296094581                -21.7296135470
           2       11                 14.2969371730                 14.2969701621
           2       12                 21.0679693190                 21.0679697493
           2       13                 -2.3833606469                 -2.3833613176
           2       14                 13.7067136422                 13.7066766629
           2       15                 45.8013116808                 45.8013116965
           2       16                 52.2309815402                 52.2309831494
           2       17                 85.4120732416                 85.4120732763
           2       18                142.1019167745                142.1019167817
 * Note: Onsite integrals marked "***" above are less accurate than
 * onsite_accuracy_threshold =    0.03000 eV. Usually, this is harmless.
 * When in doubt, tighten the "radial" and/or "radial_multiplier" flags to check.

  Preparing densities etc. for the partition functions (integrals / Hartree potential).

  Preparations completed.
  max(cpu_time)          :      0.171 s.
  Wall clock time (cpu1) :      0.530 s.
------------------------------------------------------------

------------------------------------------------------------
          Begin self-consistency loop: Initialization.

          Date     :  20150727, Time     :  130315.487
------------------------------------------------------------

  Initializing index lists of integration centers etc. from given atomic structure:
  | Number of centers in hartree potential         :        10
  | Number of centers in hartree multipole         :        10
  | Number of centers in electron density summation:        10
  | Number of centers in basis integrals           :        10
  | Number of centers in integrals                 :        10
  Partitioning the integration grid into batches with parallel hashing+maxmin method.
  | Number of batches:     1320
  | Maximal batch size:     184
  | Minimal batch size:      50
  | Average batch size:      98.197
  | Standard deviation of batch sizes:      30.073

  Integration load balanced across     8 MPI tasks.
  Work distribution over tasks is as follows:
  Task     0 has      16269 integration points.
  Task     1 has      16298 integration points.
  Task     2 has      16179 integration points.
  Task     3 has      16114 integration points.
  Task     4 has      16243 integration points.
  Task     5 has      16229 integration points.
  Task     6 has      16152 integration points.
  Task     7 has      16136 integration points.
  Initializing partition tables, free-atom densities, potentials, etc. across the integration grid (initialize_grid_storage).
  | Net number of integration points:   129620
  | of which are non-zero points    :   129102
  Obtaining max. number of non-zero basis functions in each batch (get_n_compute_maxes).
  | Maximal number of non-zero basis functions:      220 in task     0
  | Maximal number of non-zero basis functions:      220 in task     1
  | Maximal number of non-zero basis functions:      220 in task     2
  | Maximal number of non-zero basis functions:      220 in task     3
  | Maximal number of non-zero basis functions:      220 in task     4
  | Maximal number of non-zero basis functions:      220 in task     5
  | Maximal number of non-zero basis functions:      220 in task     6
  | Maximal number of non-zero basis functions:      221 in task     7
  Integrating Hamiltonian matrix: batch-based integration.
  Time summed over all CPUs for integration: real work        2.622 s, elapsed        2.745 s
  Integrating overlap matrix.
  Time summed over all CPUs for integration: real work        1.367 s, elapsed        1.424 s

  Updating Kohn-Sham eigenvalues, eigenvectors, occupation numbers, and Fermi level.
  Solving generalized eigenproblem
  Updating Kohn-Sham eigenvalues and eigenfunctions.
  Transforming overlap matrix and checking for singularities.
  Overlap matrix is nonsingular:
  | Lowest eigenvalue:  0.363664E-03
  Solving real generalised eigenvalue problem by standard LAPACK (fast)
  Determining occupation numbers for Kohn-Sham eigenstates.
  | Chemical potential (Fermi level) in eV                 : -.30128224E+01
  | Error in electron count due to remaining E_F inaccuracy: 0.31121772E-11
  | Maximum occupation number of highest empty state:  0.00E+00

  Writing Kohn-Sham eigenvalues.

  State    Occupation    Eigenvalue [Ha]    Eigenvalue [eV]
      1       2.00000         -19.064655         -518.77567
      2       2.00000         -19.040023         -518.10539
      3       2.00000         -19.028690         -517.79699
      4       2.00000          -1.118637          -30.43966
      5       2.00000          -1.083040          -29.47100
      6       2.00000          -1.060076          -28.84614
      7       2.00000          -0.626748          -17.05468
      8       2.00000          -0.603312          -16.41695
      9       2.00000          -0.598786          -16.29378
     10       2.00000          -0.590383          -16.06513
     11       2.00000          -0.504863          -13.73803
     12       2.00000          -0.489512          -13.32030
     13       2.00000          -0.487437          -13.26385
     14       2.00000          -0.426942          -11.61769
     15       2.00000          -0.417434          -11.35897
     16       1.00000          -0.110719           -3.01282
     17       0.00000          -0.077501           -2.10891
     18       0.00000          -0.061566           -1.67531
     19       0.00000          -0.036100           -0.98234
     20       0.00000          -0.019529           -0.53140
     21       0.00000          -0.011695           -0.31823
     22       0.00000           0.002731            0.07431
     23       0.00000           0.064833            1.76419
     24       0.00000           0.072888            1.98339
     25       0.00000           0.084028            2.28653
     26       0.00000           0.092384            2.51391
     27       0.00000           0.100592            2.73724
     28       0.00000           0.101375            2.75854
     29       0.00000           0.113791            3.09642
     30       0.00000           0.124643            3.39171
     31       0.00000           0.131264            3.57188
     32       0.00000           0.159302            4.33483
     33       0.00000           0.185885            5.05820
     34       0.00000           0.197508            5.37447
     35       0.00000           0.209918            5.71215
     36       0.00000           0.231832            6.30847
     37       0.00000           0.246524            6.70825
     38       0.00000           0.269670            7.33811
     39       0.00000           0.323417            8.80063
     40       0.00000           0.332426            9.04576
     41       0.00000           0.339861            9.24810
     42       0.00000           0.352984            9.60517
     43       0.00000           0.369655           10.05883
     44       0.00000           0.379890           10.33734
     45       0.00000           0.390974           10.63894
     46       0.00000           0.405488           11.03388
     47       0.00000           0.421993           11.48301
     48       0.00000           0.424236           11.54406
     49       0.00000           0.449575           12.23357
     50       0.00000           0.470868           12.81296
     51       0.00000           0.499703           13.59761
     52       0.00000           0.512097           13.93488
     53       0.00000           0.530434           14.43385
     54       0.00000           0.548322           14.92061
     55       0.00000           0.701837           19.09796
     56       0.00000           0.713307           19.41006

  Highest occupied state (VBM) at     -3.01282239 eV
  | Occupation number:      1.00000000

  Lowest unoccupied state (CBM) at    -2.10890617 eV
  | Occupation number:      0.00000000

  Overall HOMO-LUMO gap:      0.90391622 eV.
  Calculating total energy contributions from superposition of free atom densities.

  Total energy components:
  | Sum of eigenvalues            :        -130.39179489 Ha       -3548.14126636 eV
  | XC energy correction          :         -27.61306392 Ha        -751.38969968 eV
  | XC potential correction       :          35.27796622 Ha         959.96230314 eV
  | Free-atom electrostatic energy:        -107.56284772 Ha       -2926.93400728 eV
  | Hartree energy correction     :           0.00000000 Ha           0.00000000 eV
  | van der Waals energy corr.    :           0.00000000 Ha           0.00000000 eV
  | Entropy correction            :          -0.00010367 Ha          -0.00282095 eV
  | ---------------------------
  | Total energy                  :        -230.28974032 Ha       -6266.50267017 eV
  | Total energy, T -> 0          :        -230.28984398 Ha       -6266.50549112 eV  <-- do not rely on this value for anything but (periodic) metals
  | Electronic free energy        :        -230.28994765 Ha       -6266.50831207 eV

  Derived energy quantities:
  | Kinetic energy                :         228.01591028 Ha        6204.62860671 eV
  | Electrostatic energy          :        -430.69258667 Ha      -11719.74157721 eV
  | Energy correction for multipole
  | error in Hartree potential    :           0.00000000 Ha           0.00000000 eV
  | Sum of eigenvalues per atom                           :        -354.81412664 eV
  | Total energy (T->0) per atom                          :        -626.65054911 eV  <-- do not rely on this value for anything but (periodic) metals
  | Electronic free energy per atom                       :        -626.65083121 eV
  Initialize hartree_potential_storage
  Max. number of atoms included in rho_multipole:           10

  End scf initialization - timings             :  max(cpu_time)    wall_clock(cpu1)
  | Time for scf. initialization               :        0.801 s           0.800 s
  | Boundary condition initialization          :        0.000 s           0.000 s
  | Integration                                :        0.523 s           0.523 s
  | Solution of K.-S. eqns.                    :        0.074 s           0.074 s
  | Grid partitioning                          :        0.094 s           0.094 s
  | Preloading free-atom quantities on grid    :        0.014 s           0.014 s
  | Free-atom superposition energy             :        0.034 s           0.034 s
  | Total energy evaluation                    :        0.000 s           0.000 s
------------------------------------------------------------

------------------------------------------------------------
          Begin self-consistency iteration #    1

  Date     :  20150727, Time     :  130316.287
------------------------------------------------------------
  Evaluating new KS density.
  Integration grid: deviation in total charge (<rho> - N_e) =   3.122835E-12
  Pulay mixing of updated and previous charge densities.

  Evaluating partitioned Hartree potential by multipole expansion.
  | Analytical far-field extrapolation by fixed multipoles:
  | Hartree multipole sum: apparent total charge =  -0.598577E-06
  Summing up the Hartree potential.
  Time summed over all CPUs for potential: real work        1.146 s, elapsed        1.154 s
  | RMS charge density error from multipole expansion :   0.121883E-02

  Integrating Hamiltonian matrix: batch-based integration.
  Time summed over all CPUs for integration: real work        2.614 s, elapsed        2.726 s

  Updating Kohn-Sham eigenvalues, eigenvectors, occupation numbers, and Fermi level.
  Solving generalized eigenproblem
  Updating Kohn-Sham eigenvalues and eigenfunctions.
  Solving real generalised eigenvalue problem by standard LAPACK (fast)
  Determining occupation numbers for Kohn-Sham eigenstates.
  | Chemical potential (Fermi level) in eV                 : -.28655848E+01
  | Error in electron count due to remaining E_F inaccuracy: 0.50697224E-11
  | Maximum occupation number of highest empty state:  0.00E+00

  Writing Kohn-Sham eigenvalues.

  State    Occupation    Eigenvalue [Ha]    Eigenvalue [eV]
      1       2.00000         -19.016421         -517.46313
      2       2.00000         -18.961258         -515.96209
      3       2.00000         -18.952810         -515.73219
      4       2.00000          -1.097400          -29.86178
      5       2.00000          -1.043219          -28.38743
      6       2.00000          -1.021693          -27.80168
      7       2.00000          -0.609084          -16.57401
      8       2.00000          -0.580889          -15.80680
      9       2.00000          -0.569147          -15.48728
     10       2.00000          -0.558226          -15.19010
     11       2.00000          -0.467057          -12.70926
     12       2.00000          -0.465068          -12.65513
     13       2.00000          -0.449858          -12.24126
     14       2.00000          -0.385261          -10.48349
     15       2.00000          -0.377230          -10.26496
     16       1.00000          -0.105308           -2.86558
     17       0.00000          -0.069329           -1.88655
     18       0.00000          -0.053541           -1.45693
     19       0.00000          -0.030627           -0.83339
     20       0.00000          -0.014045           -0.38218
     21       0.00000          -0.002622           -0.07134
     22       0.00000           0.011039            0.30039
     23       0.00000           0.067976            1.84972
     24       0.00000           0.076747            2.08840
     25       0.00000           0.086537            2.35479
     26       0.00000           0.099903            2.71851
     27       0.00000           0.106607            2.90091
     28       0.00000           0.108030            2.93964
     29       0.00000           0.120110            3.26837
     30       0.00000           0.132722            3.61154
     31       0.00000           0.139602            3.79877
     32       0.00000           0.167823            4.56670
     33       0.00000           0.193359            5.26157
     34       0.00000           0.205126            5.58176
     35       0.00000           0.213948            5.82182
     36       0.00000           0.235432            6.40642
     37       0.00000           0.251605            6.84653
     38       0.00000           0.277295            7.54557
     39       0.00000           0.329099            8.95525
     40       0.00000           0.337380            9.18057
     41       0.00000           0.346178            9.41997
     42       0.00000           0.359222            9.77492
     43       0.00000           0.373909           10.17457
     44       0.00000           0.384015           10.44957
     45       0.00000           0.397954           10.82887
     46       0.00000           0.413906           11.26295
     47       0.00000           0.428943           11.67213
     48       0.00000           0.433316           11.79112
     49       0.00000           0.458920           12.48784
     50       0.00000           0.479760           13.05494
     51       0.00000           0.507153           13.80033
     52       0.00000           0.523514           14.24554
     53       0.00000           0.540828           14.71669
     54       0.00000           0.557986           15.18357
     55       0.00000           0.708767           19.28654
     56       0.00000           0.721116           19.62256

  Highest occupied state (VBM) at     -2.86558475 eV
  | Occupation number:      1.00000000

  Lowest unoccupied state (CBM) at    -1.88654548 eV
  | Occupation number:      0.00000000

  Overall HOMO-LUMO gap:      0.97903927 eV.

  Total energy components:
  | Sum of eigenvalues            :        -129.21454866 Ha       -3516.10676649 eV
  | XC energy correction          :         -27.74082853 Ha        -754.86635154 eV
  | XC potential correction       :          35.44539702 Ha         964.51832709 eV
  | Free-atom electrostatic energy:        -107.56284772 Ha       -2926.93400728 eV
  | Hartree energy correction     :          -1.14368865 Ha         -31.12135153 eV
  | van der Waals energy corr.    :           0.00000000 Ha           0.00000000 eV
  | Entropy correction            :          -0.00010367 Ha          -0.00282095 eV
  | ---------------------------
  | Total energy                  :        -230.21651654 Ha       -6264.51014976 eV
  | Total energy, T -> 0          :        -230.21662021 Ha       -6264.51297070 eV  <-- do not rely on this value for anything but (periodic) metals
  | Electronic free energy        :        -230.21672387 Ha       -6264.51579165 eV

  Derived energy quantities:
  | Kinetic energy                :         228.79087921 Ha        6225.71658432 eV
  | Electrostatic energy          :        -431.26656722 Ha      -11735.36038253 eV
  | Energy correction for multipole
  | error in Hartree potential    :           0.00030971 Ha           0.00842763 eV
  | Sum of eigenvalues per atom                           :        -351.61067665 eV
  | Total energy (T->0) per atom                          :        -626.45129707 eV  <-- do not rely on this value for anything but (periodic) metals
  | Electronic free energy per atom                       :        -626.45157917 eV

  Self-consistency convergence accuracy:
  | Change of charge density      : 0.4807E+00
  | Change of sum of eigenvalues  : 0.3203E+02 eV
  | Change of total energy        : 0.1993E+01 eV

  End self-consistency iteration #     1       :  max(cpu_time)    wall_clock(cpu1)
  | Time for this iteration                    :        0.748 s           0.748 s
  | Charge density update                      :        0.236 s           0.236 s
  | Density mixing                             :        0.002 s           0.002 s
  | Hartree multipole update                   :        0.004 s           0.004 s
  | Hartree multipole summation                :        0.145 s           0.145 s
  | Integration                                :        0.342 s           0.341 s
  | Solution of K.-S. eqns.                    :        0.018 s           0.019 s
  | Total energy evaluation                    :        0.000 s           0.001 s
------------------------------------------------------------

------------------------------------------------------------
          Begin self-consistency iteration #    2

  Date     :  20150727, Time     :  130317.035
------------------------------------------------------------
  Evaluating new KS density.
  Integration grid: deviation in total charge (<rho> - N_e) =   5.087486E-12
  Pulay mixing of updated and previous charge densities.

  Evaluating partitioned Hartree potential by multipole expansion.
  | Analytical far-field extrapolation by fixed multipoles:
  | Hartree multipole sum: apparent total charge =  -0.227597E-05
  Summing up the Hartree potential.
  Time summed over all CPUs for potential: real work        1.146 s, elapsed        1.154 s
  | RMS charge density error from multipole expansion :   0.476010E-02

  Integrating Hamiltonian matrix: batch-based integration.
  Time summed over all CPUs for integration: real work        2.617 s, elapsed        2.731 s

  Updating Kohn-Sham eigenvalues, eigenvectors, occupation numbers, and Fermi level.
  Solving generalized eigenproblem
  Updating Kohn-Sham eigenvalues and eigenfunctions.
  Solving real generalised eigenvalue problem by standard LAPACK (fast)
  Determining occupation numbers for Kohn-Sham eigenstates.
  | Chemical potential (Fermi level) in eV                 : -.25352994E+01
  | Error in electron count due to remaining E_F inaccuracy: -.80706997E-10
  | Maximum occupation number of highest empty state:  0.00E+00

  Highest occupied state (VBM) at     -7.81474232 eV
  | Occupation number:      2.00000000

  Lowest unoccupied state (CBM) at    -2.53529938 eV
  | Occupation number:      1.00000000

  Overall HOMO-LUMO gap:      5.27944294 eV.

  Total energy components:
  | Sum of eigenvalues            :        -126.59472391 Ha       -3444.81770808 eV
  | XC energy correction          :         -28.03881448 Ha        -762.97496182 eV
  | XC potential correction       :          35.83513337 Ha         975.12359281 eV
  | Free-atom electrostatic energy:        -107.56284772 Ha       -2926.93400728 eV
  | Hartree energy correction     :          -3.77692224 Ha        -102.77528334 eV
  | van der Waals energy corr.    :           0.00000000 Ha           0.00000000 eV
  | Entropy correction            :          -0.00010367 Ha          -0.00282095 eV
  | ---------------------------
  | Total energy                  :        -230.13817499 Ha       -6262.37836771 eV
  | Total energy, T -> 0          :        -230.13827866 Ha       -6262.38118866 eV  <-- do not rely on this value for anything but (periodic) metals
  | Electronic free energy        :        -230.13838232 Ha       -6262.38400961 eV

  Derived energy quantities:
  | Kinetic energy                :         230.27677735 Ha        6266.14992997 eV
  | Electrostatic energy          :        -432.37613786 Ha      -11765.55333586 eV
  | Energy correction for multipole
  | error in Hartree potential    :           0.00079126 Ha           0.02153124 eV
  | Sum of eigenvalues per atom                           :        -344.48177081 eV
  | Total energy (T->0) per atom                          :        -626.23811887 eV  <-- do not rely on this value for anything but (periodic) metals
  | Electronic free energy per atom                       :        -626.23840096 eV

  Self-consistency convergence accuracy:
  | Change of charge density      : 0.3630E+00
  | Change of sum of eigenvalues  : 0.7129E+02 eV
  | Change of total energy        : 0.2132E+01 eV

  End self-consistency iteration #     2       :  max(cpu_time)    wall_clock(cpu1)
  | Time for this iteration                    :        0.747 s           0.747 s
  | Charge density update                      :        0.234 s           0.234 s
  | Density mixing                             :        0.003 s           0.003 s
  | Hartree multipole update                   :        0.004 s           0.004 s
  | Hartree multipole summation                :        0.145 s           0.145 s
  | Integration                                :        0.342 s           0.342 s
  | Solution of K.-S. eqns.                    :        0.019 s           0.018 s
  | Total energy evaluation                    :        0.000 s           0.000 s
------------------------------------------------------------

------------------------------------------------------------
          Begin self-consistency iteration #    3

  Date     :  20150727, Time     :  130317.782
------------------------------------------------------------
  Evaluating new KS density.
  Integration grid: deviation in total charge (<rho> - N_e) =  -8.069989E-11
  Pulay mixing of updated and previous charge densities.

  Evaluating partitioned Hartree potential by multipole expansion.
  | Analytical far-field extrapolation by fixed multipoles:
  | Hartree multipole sum: apparent total charge =  -0.215443E-05
  Summing up the Hartree potential.
  Time summed over all CPUs for potential: real work        1.145 s, elapsed        1.153 s
  | RMS charge density error from multipole expansion :   0.101746E-01

  Integrating Hamiltonian matrix: batch-based integration.
  Time summed over all CPUs for integration: real work        2.604 s, elapsed        2.717 s

  Updating Kohn-Sham eigenvalues, eigenvectors, occupation numbers, and Fermi level.
  Solving generalized eigenproblem
  Updating Kohn-Sham eigenvalues and eigenfunctions.
  Solving real generalised eigenvalue problem by standard LAPACK (fast)
  Determining occupation numbers for Kohn-Sham eigenstates.
  | Chemical potential (Fermi level) in eV                 : -.25736272E+01
  | Error in electron count due to remaining E_F inaccuracy: 0.46041748E-09
  | Maximum occupation number of highest empty state:  0.00E+00

  Highest occupied state (VBM) at     -2.57362721 eV
  | Occupation number:      1.00000000

  Lowest unoccupied state (CBM) at    -1.26828807 eV
  | Occupation number:      0.00000000

  Overall HOMO-LUMO gap:      1.30533913 eV.

  Total energy components:
  | Sum of eigenvalues            :        -126.85125441 Ha       -3451.79825815 eV
  | XC energy correction          :         -28.01729435 Ha        -762.38936928 eV
  | XC potential correction       :          35.80229526 Ha         974.23002233 eV
  | Free-atom electrostatic energy:        -107.56284772 Ha       -2926.93400728 eV
  | Hartree energy correction     :          -3.50733170 Ha         -95.43935151 eV
  | van der Waals energy corr.    :           0.00000000 Ha           0.00000000 eV
  | Entropy correction            :          -0.00010367 Ha          -0.00282095 eV
  | ---------------------------
  | Total energy                  :        -230.13643293 Ha       -6262.33096389 eV
  | Total energy, T -> 0          :        -230.13653660 Ha       -6262.33378483 eV  <-- do not rely on this value for anything but (periodic) metals
  | Electronic free energy        :        -230.13664026 Ha       -6262.33660578 eV

  Derived energy quantities:
  | Kinetic energy                :         229.14934598 Ha        6235.47096143 eV
  | Electrostatic energy          :        -431.26848456 Ha      -11735.41255604 eV
  | Energy correction for multipole
  | error in Hartree potential    :          -0.00039609 Ha          -0.01077820 eV
  | Sum of eigenvalues per atom                           :        -345.17982581 eV
  | Total energy (T->0) per atom                          :        -626.23337848 eV  <-- do not rely on this value for anything but (periodic) metals
  | Electronic free energy per atom                       :        -626.23366058 eV

  Self-consistency convergence accuracy:
  | Change of charge density      : 0.1908E+00
  | Change of sum of eigenvalues  : -.6981E+01 eV
  | Change of total energy        : 0.4740E-01 eV

  End self-consistency iteration #     3       :  max(cpu_time)    wall_clock(cpu1)
  | Time for this iteration                    :        0.744 s           0.744 s
  | Charge density update                      :        0.232 s           0.231 s
  | Density mixing                             :        0.004 s           0.004 s
  | Hartree multipole update                   :        0.004 s           0.004 s
  | Hartree multipole summation                :        0.145 s           0.145 s
  | Integration                                :        0.340 s           0.340 s
  | Solution of K.-S. eqns.                    :        0.019 s           0.018 s
  | Total energy evaluation                    :        0.000 s           0.001 s
------------------------------------------------------------

------------------------------------------------------------
          Begin self-consistency iteration #    4

  Date     :  20150727, Time     :  130318.526
------------------------------------------------------------
  Evaluating new KS density.
  Integration grid: deviation in total charge (<rho> - N_e) =   4.603997E-10
  Pulay mixing of updated and previous charge densities.

  Evaluating partitioned Hartree potential by multipole expansion.
  | Analytical far-field extrapolation by fixed multipoles:
  | Hartree multipole sum: apparent total charge =  -0.255449E-05
  Summing up the Hartree potential.
  Time summed over all CPUs for potential: real work        1.145 s, elapsed        1.153 s
  | RMS charge density error from multipole expansion :   0.131129E-01

  Integrating Hamiltonian matrix: batch-based integration.
  Time summed over all CPUs for integration: real work        2.603 s, elapsed        2.716 s

  Updating Kohn-Sham eigenvalues, eigenvectors, occupation numbers, and Fermi level.
  Solving generalized eigenproblem
  Updating Kohn-Sham eigenvalues and eigenfunctions.
  Solving real generalised eigenvalue problem by standard LAPACK (fast)
  Determining occupation numbers for Kohn-Sham eigenstates.
  | Chemical potential (Fermi level) in eV                 : -.24695010E+01
  | Error in electron count due to remaining E_F inaccuracy: 0.34106051E-11
  | Maximum occupation number of highest empty state:  0.00E+00

  Highest occupied state (VBM) at     -2.46950098 eV
  | Occupation number:      1.00000000

  Lowest unoccupied state (CBM) at    -1.07557581 eV
  | Occupation number:      0.00000000

  Overall HOMO-LUMO gap:      1.39392517 eV.

  Total energy components:
  | Sum of eigenvalues            :        -126.04718909 Ha       -3429.91852741 eV
  | XC energy correction          :         -28.12311039 Ha        -765.26877020 eV
  | XC potential correction       :          35.93942091 Ha         977.96140114 eV
  | Free-atom electrostatic energy:        -107.56284772 Ha       -2926.93400728 eV
  | Hartree energy correction     :          -4.33782753 Ha        -118.03829290 eV
  | van der Waals energy corr.    :           0.00000000 Ha           0.00000000 eV
  | Entropy correction            :          -0.00010367 Ha          -0.00282095 eV
  | ---------------------------
  | Total energy                  :        -230.13155382 Ha       -6262.19819664 eV
  | Total energy, T -> 0          :        -230.13165749 Ha       -6262.20101759 eV  <-- do not rely on this value for anything but (periodic) metals
  | Electronic free energy        :        -230.13176116 Ha       -6262.20383854 eV

  Derived energy quantities:
  | Kinetic energy                :         229.27955474 Ha        6239.01412215 eV
  | Electrostatic energy          :        -431.28799818 Ha      -11735.94354860 eV
  | Energy correction for multipole
  | error in Hartree potential    :          -0.00061084 Ha          -0.01662183 eV
  | Sum of eigenvalues per atom                           :        -342.99185274 eV
  | Total energy (T->0) per atom                          :        -626.22010176 eV  <-- do not rely on this value for anything but (periodic) metals
  | Electronic free energy per atom                       :        -626.22038385 eV

  Self-consistency convergence accuracy:
  | Change of charge density      : 0.9459E-01
  | Change of sum of eigenvalues  : 0.2188E+02 eV
  | Change of total energy        : 0.1328E+00 eV

  End self-consistency iteration #     4       :  max(cpu_time)    wall_clock(cpu1)
  | Time for this iteration                    :        0.745 s           0.744 s
  | Charge density update                      :        0.232 s           0.231 s
  | Density mixing                             :        0.005 s           0.005 s
  | Hartree multipole update                   :        0.004 s           0.003 s
  | Hartree multipole summation                :        0.145 s           0.145 s
  | Integration                                :        0.340 s           0.340 s
  | Solution of K.-S. eqns.                    :        0.018 s           0.018 s
  | Total energy evaluation                    :        0.001 s           0.000 s
------------------------------------------------------------

------------------------------------------------------------
          Begin self-consistency iteration #    5

  Date     :  20150727, Time     :  130319.270
------------------------------------------------------------
  Evaluating new KS density.
  Integration grid: deviation in total charge (<rho> - N_e) =   3.428369E-12
  Pulay mixing of updated and previous charge densities.

  Evaluating partitioned Hartree potential by multipole expansion.
  | Analytical far-field extrapolation by fixed multipoles:
  | Hartree multipole sum: apparent total charge =  -0.249697E-05
  Summing up the Hartree potential.
  Time summed over all CPUs for potential: real work        1.145 s, elapsed        1.153 s
  | RMS charge density error from multipole expansion :   0.131777E-01

  Integrating Hamiltonian matrix: batch-based integration.
  Time summed over all CPUs for integration: real work        2.601 s, elapsed        2.712 s

  Updating Kohn-Sham eigenvalues, eigenvectors, occupation numbers, and Fermi level.
  Solving generalized eigenproblem
  Updating Kohn-Sham eigenvalues and eigenfunctions.
  Solving real generalised eigenvalue problem by standard LAPACK (fast)
  Determining occupation numbers for Kohn-Sham eigenstates.
  | Chemical potential (Fermi level) in eV                 : -.24536834E+01
  | Error in electron count due to remaining E_F inaccuracy: -.14068746E-11
  | Maximum occupation number of highest empty state:  0.00E+00

  Highest occupied state (VBM) at     -6.88895021 eV
  | Occupation number:      2.00000000

  Lowest unoccupied state (CBM) at    -2.45368343 eV
  | Occupation number:      1.00000000

  Overall HOMO-LUMO gap:      4.43526678 eV.

  Total energy components:
  | Sum of eigenvalues            :        -126.06721445 Ha       -3430.46344517 eV
  | XC energy correction          :         -28.12086332 Ha        -765.20762418 eV
  | XC potential correction       :          35.93630420 Ha         977.87659114 eV
  | Free-atom electrostatic energy:        -107.56284772 Ha       -2926.93400728 eV
  | Hartree energy correction     :          -4.31685060 Ha        -117.46748156 eV
  | van der Waals energy corr.    :           0.00000000 Ha           0.00000000 eV
  | Entropy correction            :          -0.00010367 Ha          -0.00282095 eV
  | ---------------------------
  | Total energy                  :        -230.13147189 Ha       -6262.19596705 eV
  | Total energy, T -> 0          :        -230.13157555 Ha       -6262.19878800 eV  <-- do not rely on this value for anything but (periodic) metals
  | Electronic free energy        :        -230.13167922 Ha       -6262.20160894 eV

  Derived energy quantities:
  | Kinetic energy                :         229.30974912 Ha        6239.83575289 eV
  | Electrostatic energy          :        -431.32035769 Ha      -11736.82409577 eV
  | Energy correction for multipole
  | error in Hartree potential    :          -0.00049014 Ha          -0.01333744 eV
  | Sum of eigenvalues per atom                           :        -343.04634452 eV
  | Total energy (T->0) per atom                          :        -626.21987880 eV  <-- do not rely on this value for anything but (periodic) metals
  | Electronic free energy per atom                       :        -626.22016089 eV

  Self-consistency convergence accuracy:
  | Change of charge density      : 0.1195E-01
  | Change of sum of eigenvalues  : -.5449E+00 eV
  | Change of total energy        : 0.2230E-02 eV

  End self-consistency iteration #     5       :  max(cpu_time)    wall_clock(cpu1)
  | Time for this iteration                    :        0.745 s           0.746 s
  | Charge density update                      :        0.232 s           0.232 s
  | Density mixing                             :        0.006 s           0.006 s
  | Hartree multipole update                   :        0.004 s           0.004 s
  | Hartree multipole summation                :        0.145 s           0.145 s
  | Integration                                :        0.339 s           0.340 s
  | Solution of K.-S. eqns.                    :        0.019 s           0.018 s
  | Total energy evaluation                    :        0.000 s           0.000 s
------------------------------------------------------------

------------------------------------------------------------
          Begin self-consistency iteration #    6

  Date     :  20150727, Time     :  130320.016
------------------------------------------------------------
  Evaluating new KS density.
  Integration grid: deviation in total charge (<rho> - N_e) =  -1.392664E-12
  Pulay mixing of updated and previous charge densities.

  Evaluating partitioned Hartree potential by multipole expansion.
  | Analytical far-field extrapolation by fixed multipoles:
  | Hartree multipole sum: apparent total charge =  -0.248009E-05
  Summing up the Hartree potential.
  Time summed over all CPUs for potential: real work        1.145 s, elapsed        1.153 s
  | RMS charge density error from multipole expansion :   0.133149E-01

  Integrating Hamiltonian matrix: batch-based integration.
  Time summed over all CPUs for integration: real work        2.602 s, elapsed        2.713 s

  Updating Kohn-Sham eigenvalues, eigenvectors, occupation numbers, and Fermi level.
  Solving generalized eigenproblem
  Updating Kohn-Sham eigenvalues and eigenfunctions.
  Solving real generalised eigenvalue problem by standard LAPACK (fast)
  Determining occupation numbers for Kohn-Sham eigenstates.
  | Chemical potential (Fermi level) in eV                 : -.24476207E+01
  | Error in electron count due to remaining E_F inaccuracy: -.70193806E-09
  | Maximum occupation number of highest empty state:  0.00E+00

  Highest occupied state (VBM) at     -6.90284790 eV
  | Occupation number:      2.00000000

  Lowest unoccupied state (CBM) at    -2.44762069 eV
  | Occupation number:      1.00000000

  Overall HOMO-LUMO gap:      4.45522720 eV.

  Total energy components:
  | Sum of eigenvalues            :        -126.07455134 Ha       -3430.66309230 eV
  | XC energy correction          :         -28.12055109 Ha        -765.19912798 eV
  | XC potential correction       :          35.93574010 Ha         977.86124123 eV
  | Free-atom electrostatic energy:        -107.56284772 Ha       -2926.93400728 eV
  | Hartree energy correction     :          -4.30926030 Ha        -117.26093904 eV
  | van der Waals energy corr.    :           0.00000000 Ha           0.00000000 eV
  | Entropy correction            :          -0.00010367 Ha          -0.00282095 eV
  | ---------------------------
  | Total energy                  :        -230.13147035 Ha       -6262.19592537 eV
  | Total energy, T -> 0          :        -230.13157402 Ha       -6262.19874631 eV  <-- do not rely on this value for anything but (periodic) metals
  | Electronic free energy        :        -230.13167769 Ha       -6262.20156726 eV

  Derived energy quantities:
  | Kinetic energy                :         229.31062743 Ha        6239.85965281 eV
  | Electrostatic energy          :        -431.32154669 Ha      -11736.85645019 eV
  | Energy correction for multipole
  | error in Hartree potential    :          -0.00044853 Ha          -0.01220508 eV
  | Sum of eigenvalues per atom                           :        -343.06630923 eV
  | Total energy (T->0) per atom                          :        -626.21987463 eV  <-- do not rely on this value for anything but (periodic) metals
  | Electronic free energy per atom                       :        -626.22015673 eV

  Self-consistency convergence accuracy:
  | Change of charge density      : 0.6713E-02
  | Change of sum of eigenvalues  : -.1996E+00 eV
  | Change of total energy        : 0.4168E-04 eV

  End self-consistency iteration #     6       :  max(cpu_time)    wall_clock(cpu1)
  | Time for this iteration                    :        0.747 s           0.746 s
  | Charge density update                      :        0.232 s           0.232 s
  | Density mixing                             :        0.007 s           0.007 s
  | Hartree multipole update                   :        0.004 s           0.004 s
  | Hartree multipole summation                :        0.145 s           0.144 s
  | Integration                                :        0.340 s           0.340 s
  | Solution of K.-S. eqns.                    :        0.018 s           0.019 s
  | Total energy evaluation                    :        0.001 s           0.000 s
------------------------------------------------------------

------------------------------------------------------------
          Begin self-consistency iteration #    7

  Date     :  20150727, Time     :  130320.762
------------------------------------------------------------
  Evaluating new KS density.
  Integration grid: deviation in total charge (<rho> - N_e) =  -7.019381E-10
  Pulay mixing of updated and previous charge densities.

  Evaluating partitioned Hartree potential by multipole expansion.
  | Analytical far-field extrapolation by fixed multipoles:
  | Hartree multipole sum: apparent total charge =  -0.236950E-05
  Summing up the Hartree potential.
  Time summed over all CPUs for potential: real work        1.145 s, elapsed        1.153 s
  | RMS charge density error from multipole expansion :   0.134126E-01

  Integrating Hamiltonian matrix: batch-based integration.
  Time summed over all CPUs for integration: real work        2.596 s, elapsed        2.707 s

  Updating Kohn-Sham eigenvalues, eigenvectors, occupation numbers, and Fermi level.
  Solving generalized eigenproblem
  Updating Kohn-Sham eigenvalues and eigenfunctions.
  Solving real generalised eigenvalue problem by standard LAPACK (fast)
  Determining occupation numbers for Kohn-Sham eigenstates.
  | Chemical potential (Fermi level) in eV                 : -.24440126E+01
  | Error in electron count due to remaining E_F inaccuracy: 0.00000000E+00
  | Maximum occupation number of highest empty state:  0.00E+00

  Highest occupied state (VBM) at     -2.44401255 eV
  | Occupation number:      1.00000000

  Lowest unoccupied state (CBM) at    -2.44401255 eV
  | Occupation number:      1.00000000

  Overall HOMO-LUMO gap:      0.00000000 eV.

  Total energy components:
  | Sum of eigenvalues            :        -126.10714668 Ha       -3431.55005653 eV
  | XC energy correction          :         -28.11704129 Ha        -765.10362156 eV
  | XC potential correction       :          35.93092995 Ha         977.73035018 eV
  | Free-atom electrostatic energy:        -107.56284772 Ha       -2926.93400728 eV
  | Hartree energy correction     :          -4.27534698 Ha        -116.33811062 eV
  | van der Waals energy corr.    :           0.00000000 Ha           0.00000000 eV
  | Entropy correction            :          -0.00010367 Ha          -0.00282095 eV
  | ---------------------------
  | Total energy                  :        -230.13145273 Ha       -6262.19544581 eV
  | Total energy, T -> 0          :        -230.13155640 Ha       -6262.19826676 eV  <-- do not rely on this value for anything but (periodic) metals
  | Electronic free energy        :        -230.13166007 Ha       -6262.20108770 eV

  Derived energy quantities:
  | Kinetic energy                :         229.33530748 Ha        6240.53123117 eV
  | Electrostatic energy          :        -431.34971892 Ha      -11737.62305542 eV
  | Energy correction for multipole
  | error in Hartree potential    :          -0.00032743 Ha          -0.00890977 eV
  | Sum of eigenvalues per atom                           :        -343.15500565 eV
  | Total energy (T->0) per atom                          :        -626.21982668 eV  <-- do not rely on this value for anything but (periodic) metals
  | Electronic free energy per atom                       :        -626.22010877 eV

  Self-consistency convergence accuracy:
  | Change of charge density      : 0.5271E-02
  | Change of sum of eigenvalues  : -.8870E+00 eV
  | Change of total energy        : 0.4796E-03 eV

  End self-consistency iteration #     7       :  max(cpu_time)    wall_clock(cpu1)
  | Time for this iteration                    :        0.746 s           0.746 s
  | Charge density update                      :        0.231 s           0.231 s
  | Density mixing                             :        0.008 s           0.008 s
  | Hartree multipole update                   :        0.004 s           0.004 s
  | Hartree multipole summation                :        0.145 s           0.145 s
  | Integration                                :        0.339 s           0.339 s
  | Solution of K.-S. eqns.                    :        0.018 s           0.018 s
  | Total energy evaluation                    :        0.001 s           0.001 s
------------------------------------------------------------

------------------------------------------------------------
          Begin self-consistency iteration #    8

  Date     :  20150727, Time     :  130321.508
------------------------------------------------------------
  Evaluating new KS density.
  Integration grid: deviation in total charge (<rho> - N_e) =   1.776357E-14
  Pulay mixing of updated and previous charge densities.

  Evaluating partitioned Hartree potential by multipole expansion.
  | Analytical far-field extrapolation by fixed multipoles:
  | Hartree multipole sum: apparent total charge =  -0.235874E-05
  Summing up the Hartree potential.
  Time summed over all CPUs for potential: real work        1.145 s, elapsed        1.153 s
  | RMS charge density error from multipole expansion :   0.134081E-01

  Integrating Hamiltonian matrix: batch-based integration.
  Time summed over all CPUs for integration: real work        2.596 s, elapsed        2.719 s

  Updating Kohn-Sham eigenvalues, eigenvectors, occupation numbers, and Fermi level.
  Solving generalized eigenproblem
  Updating Kohn-Sham eigenvalues and eigenfunctions.
  Solving real generalised eigenvalue problem by standard LAPACK (fast)
  Determining occupation numbers for Kohn-Sham eigenstates.
  | Chemical potential (Fermi level) in eV                 : -.24510175E+01
  | Error in electron count due to remaining E_F inaccuracy: -.85265128E-12
  | Maximum occupation number of highest empty state:  0.00E+00

  Highest occupied state (VBM) at     -6.95747530 eV
  | Occupation number:      2.00000000

  Lowest unoccupied state (CBM) at    -2.45101748 eV
  | Occupation number:      1.00000000

  Overall HOMO-LUMO gap:      4.50645782 eV.

  Total energy components:
  | Sum of eigenvalues            :        -126.11781116 Ha       -3431.84025185 eV
  | XC energy correction          :         -28.11572805 Ha        -765.06788659 eV
  | XC potential correction       :          35.92918698 Ha         977.68292173 eV
  | Free-atom electrostatic energy:        -107.56284772 Ha       -2926.93400728 eV
  | Hartree energy correction     :          -4.26425022 Ha        -116.03615247 eV
  | van der Waals energy corr.    :           0.00000000 Ha           0.00000000 eV
  | Entropy correction            :          -0.00010367 Ha          -0.00282095 eV
  | ---------------------------
  | Total energy                  :        -230.13145018 Ha       -6262.19537647 eV
  | Total energy, T -> 0          :        -230.13155385 Ha       -6262.19819742 eV  <-- do not rely on this value for anything but (periodic) metals
  | Electronic free energy        :        -230.13165752 Ha       -6262.20101836 eV

  Derived energy quantities:
  | Kinetic energy                :         229.33714210 Ha        6240.58115393 eV
  | Electrostatic energy          :        -431.35286423 Ha      -11737.70864381 eV
  | Energy correction for multipole
  | error in Hartree potential    :          -0.00031362 Ha          -0.00853403 eV
  | Sum of eigenvalues per atom                           :        -343.18402519 eV
  | Total energy (T->0) per atom                          :        -626.21981974 eV  <-- do not rely on this value for anything but (periodic) metals
  | Electronic free energy per atom                       :        -626.22010184 eV

  Self-consistency convergence accuracy:
  | Change of charge density      : 0.1540E-02
  | Change of sum of eigenvalues  : -.2902E+00 eV
  | Change of total energy        : 0.6934E-04 eV

  End self-consistency iteration #     8       :  max(cpu_time)    wall_clock(cpu1)
  | Time for this iteration                    :        0.748 s           0.748 s
  | Charge density update                      :        0.231 s           0.231 s
  | Density mixing                             :        0.009 s           0.009 s
  | Hartree multipole update                   :        0.004 s           0.004 s
  | Hartree multipole summation                :        0.145 s           0.145 s
  | Integration                                :        0.341 s           0.341 s
  | Solution of K.-S. eqns.                    :        0.018 s           0.018 s
  | Total energy evaluation                    :        0.000 s           0.000 s
------------------------------------------------------------

------------------------------------------------------------
          Begin self-consistency iteration #    9

  Date     :  20150727, Time     :  130322.256
------------------------------------------------------------
  Evaluating new KS density.
  Integration grid: deviation in total charge (<rho> - N_e) =  -8.526513E-13
  Pulay mixing of updated and previous charge densities.

  Evaluating partitioned Hartree potential by multipole expansion.
  | Analytical far-field extrapolation by fixed multipoles:
  | Hartree multipole sum: apparent total charge =  -0.234995E-05
  Summing up the Hartree potential.
  Time summed over all CPUs for potential: real work        1.145 s, elapsed        1.153 s
  | RMS charge density error from multipole expansion :   0.134001E-01

  Integrating Hamiltonian matrix: batch-based integration.
  Time summed over all CPUs for integration: real work        2.598 s, elapsed        2.714 s

  Updating Kohn-Sham eigenvalues, eigenvectors, occupation numbers, and Fermi level.
  Solving generalized eigenproblem
  Updating Kohn-Sham eigenvalues and eigenfunctions.
  Solving real generalised eigenvalue problem by standard LAPACK (fast)
  Determining occupation numbers for Kohn-Sham eigenstates.
  | Chemical potential (Fermi level) in eV                 : -.24537063E+01
  | Error in electron count due to remaining E_F inaccuracy: -.13774581E-08
  | Maximum occupation number of highest empty state:  0.00E+00

  Highest occupied state (VBM) at     -6.95754298 eV
  | Occupation number:      2.00000000

  Lowest unoccupied state (CBM) at    -2.45370633 eV
  | Occupation number:      1.00000000

  Overall HOMO-LUMO gap:      4.50383664 eV.

  Total energy components:
  | Sum of eigenvalues            :        -126.11874611 Ha       -3431.86569308 eV
  | XC energy correction          :         -28.11556622 Ha        -765.06348293 eV
  | XC potential correction       :          35.92897590 Ha         977.67717804 eV
  | Free-atom electrostatic energy:        -107.56284772 Ha       -2926.93400728 eV
  | Hartree energy correction     :          -4.26326561 Ha        -116.00935963 eV
  | van der Waals energy corr.    :           0.00000000 Ha           0.00000000 eV
  | Entropy correction            :          -0.00010367 Ha          -0.00282095 eV
  | ---------------------------
  | Total energy                  :        -230.13144976 Ha       -6262.19536488 eV
  | Total energy, T -> 0          :        -230.13155342 Ha       -6262.19818583 eV  <-- do not rely on this value for anything but (periodic) metals
  | Electronic free energy        :        -230.13165709 Ha       -6262.20100677 eV

  Derived energy quantities:
  | Kinetic energy                :         229.34004298 Ha        6240.66009081 eV
  | Electrostatic energy          :        -431.35592652 Ha      -11737.79197276 eV
  | Energy correction for multipole
  | error in Hartree potential    :          -0.00030862 Ha          -0.00839805 eV
  | Sum of eigenvalues per atom                           :        -343.18656931 eV
  | Total energy (T->0) per atom                          :        -626.21981858 eV  <-- do not rely on this value for anything but (periodic) metals
  | Electronic free energy per atom                       :        -626.22010068 eV

  Self-consistency convergence accuracy:
  | Change of charge density      : 0.4474E-03
  | Change of sum of eigenvalues  : -.2544E-01 eV
  | Change of total energy        : 0.1159E-04 eV

  End self-consistency iteration #     9       :  max(cpu_time)    wall_clock(cpu1)
  | Time for this iteration                    :        0.749 s           0.749 s
  | Charge density update                      :        0.232 s           0.232 s
  | Density mixing                             :        0.010 s           0.010 s
  | Hartree multipole update                   :        0.004 s           0.004 s
  | Hartree multipole summation                :        0.144 s           0.144 s
  | Integration                                :        0.340 s           0.340 s
  | Solution of K.-S. eqns.                    :        0.018 s           0.018 s
  | Total energy evaluation                    :        0.000 s           0.000 s
------------------------------------------------------------

------------------------------------------------------------
          Begin self-consistency iteration #   10

  Date     :  20150727, Time     :  130323.005
------------------------------------------------------------
  Evaluating new KS density.
  Integration grid: deviation in total charge (<rho> - N_e) =  -1.377476E-09
  Pulay mixing of updated and previous charge densities.

  Evaluating partitioned Hartree potential by multipole expansion.
  | Analytical far-field extrapolation by fixed multipoles:
  | Hartree multipole sum: apparent total charge =  -0.234362E-05
  Summing up the Hartree potential.
  Time summed over all CPUs for potential: real work        1.145 s, elapsed        1.153 s
  | RMS charge density error from multipole expansion :   0.134001E-01

  Integrating Hamiltonian matrix: batch-based integration.
  Time summed over all CPUs for integration: real work        2.598 s, elapsed        2.716 s

  Updating Kohn-Sham eigenvalues, eigenvectors, occupation numbers, and Fermi level.
  Solving generalized eigenproblem
  Updating Kohn-Sham eigenvalues and eigenfunctions.
  Solving real generalised eigenvalue problem by standard LAPACK (fast)
  Determining occupation numbers for Kohn-Sham eigenstates.
  | Chemical potential (Fermi level) in eV                 : -.24538020E+01
  | Error in electron count due to remaining E_F inaccuracy: -.18067325E-09
  | Maximum occupation number of highest empty state:  0.00E+00

  Highest occupied state (VBM) at     -6.95892857 eV
  | Occupation number:      2.00000000

  Lowest unoccupied state (CBM) at    -2.45380196 eV
  | Occupation number:      1.00000000

  Overall HOMO-LUMO gap:      4.50512660 eV.

  Total energy components:
  | Sum of eigenvalues            :        -126.12001378 Ha       -3431.90018817 eV
  | XC energy correction          :         -28.11538837 Ha        -765.05864317 eV
  | XC potential correction       :          35.92874116 Ha         977.67079034 eV
  | Free-atom electrostatic energy:        -107.56284772 Ha       -2926.93400728 eV
  | Hartree energy correction     :          -4.26194106 Ha        -115.97331687 eV
  | van der Waals energy corr.    :           0.00000000 Ha           0.00000000 eV
  | Entropy correction            :          -0.00010367 Ha          -0.00282095 eV
  | ---------------------------
  | Total energy                  :        -230.13144977 Ha       -6262.19536515 eV
  | Total energy, T -> 0          :        -230.13155343 Ha       -6262.19818610 eV  <-- do not rely on this value for anything but (periodic) metals
  | Electronic free energy        :        -230.13165710 Ha       -6262.20100705 eV

  Derived energy quantities:
  | Kinetic energy                :         229.34005849 Ha        6240.66051281 eV
[...]
  | Atom     7: H
  |   Hirshfeld charge        :      0.13254337
  |   Free atom volume        :     10.44207651
  |   Hirshfeld volume        :      7.95161791
  |   Hirshfeld dipole vector :     -0.07676074       0.08248453      -0.00739800
  |   Hirshfeld dipole moment :      0.11291873
  |   Hirshfeld second moments:      0.07843640      -0.00841976      -0.00529148
  |                                 -0.00841976       0.06961956      -0.00111535
  |                                 -0.00529148      -0.00111535       0.09532518
  ----------------------------------------------------------------------
  | Atom     8: O
  |   Hirshfeld charge        :     -0.30660130
  |   Free atom volume        :     23.95238533
  |   Hirshfeld volume        :     23.30707863
  |   Hirshfeld dipole vector :      0.05548963       0.03165666       0.00518177
  |   Hirshfeld dipole moment :      0.06409442
  |   Hirshfeld second moments:     -0.01251770      -0.01806727       0.01626266
  |                                 -0.01806727       0.00944451      -0.06295688
  |                                  0.01626266      -0.06295688      -0.04095780
  ----------------------------------------------------------------------
  | Atom     9: H
  |   Hirshfeld charge        :      0.11014787
  |   Free atom volume        :     10.44207651
  |   Hirshfeld volume        :      8.85579856
  |   Hirshfeld dipole vector :      0.08688988      -0.01596250       0.04409626
  |   Hirshfeld dipole moment :      0.09873769
  |   Hirshfeld second moments:      0.06604475       0.01955371      -0.00160443
  |                                  0.01955371       0.06473234      -0.01886251
  |                                 -0.00160443      -0.01886251       0.05568904
  ----------------------------------------------------------------------
  | Atom    10: H
  |   Hirshfeld charge        :      0.13431322
  |   Free atom volume        :     10.44207651
  |   Hirshfeld volume        :      7.38537985
  |   Hirshfeld dipole vector :      0.03662671       0.10692777      -0.04807198
  |   Hirshfeld dipole moment :      0.12282499
  |   Hirshfeld second moments:      0.10619899      -0.01084785       0.01041415
  |                                 -0.01084785       0.09149766      -0.01900180
  |                                  0.01041415      -0.01900180       0.08447714
  ----------------------------------------------------------------------


  Total energy components:
  | Sum of eigenvalues            :        -126.11947009 Ha       -3431.88539351 eV
  | XC energy correction          :         -28.11543111 Ha        -765.05980625 eV
  | XC potential correction       :          35.92880023 Ha         977.67239772 eV
  | Free-atom electrostatic energy:        -107.56284772 Ha       -2926.93400728 eV
  | Hartree energy correction     :          -4.26250111 Ha        -115.98855667 eV
  | van der Waals energy corr.    :          -0.00125021 Ha          -0.03401984 eV
  | Entropy correction            :          -0.00010367 Ha          -0.00282095 eV
  | ---------------------------
  | Total energy                  :        -230.13270000 Ha       -6262.22938584 eV
  | Total energy, T -> 0          :        -230.13280367 Ha       -6262.23220678 eV  <-- do not rely on this value for anything but (periodic) metals
  | Electronic free energy        :        -230.13290734 Ha       -6262.23502773 eV

  Derived energy quantities:
  | Kinetic energy                :         229.33997281 Ha        6240.65818139 eV
  | Electrostatic energy          :        -431.35599150 Ha      -11737.79374113 eV
  | Energy correction for multipole
  | error in Hartree potential    :          -0.00030678 Ha          -0.00834799 eV
  | Sum of eigenvalues per atom                           :        -343.18853935 eV
  | Total energy (T->0) per atom                          :        -626.22322068 eV  <-- do not rely on this value for anything but (periodic) metals
  | Electronic free energy per atom                       :        -626.22350277 eV

  atomic forces [eV/Ang]:
  -----------------------
  atom #    1
   Hellmann-Feynman + Multipole  : -.273467E+01 -.679292E+01 -.791669E+01
   Pulay + GGA                   : 0.229327E+01 0.764990E+01 0.735034E+01
   Van der Waals               : 0.428933E-03 0.562711E-02 0.356977E-02
   ----------------------------------------------------------------
   Total forces(   1)            : -.440973E+00 0.862605E+00 -.562788E+00
  atom #    2
   Hellmann-Feynman + Multipole  : 0.367344E+00 -.797491E+00 0.307560E+00
   Pulay + GGA                   : -.949085E-01 0.116690E+00 -.865620E-01
   Van der Waals               : -.122713E-03 -.130752E-02 0.159218E-02
   ----------------------------------------------------------------
   Total forces(   2)            : 0.272313E+00 -.682108E+00 0.222590E+00
  atom #    3
   Hellmann-Feynman + Multipole  : 0.169728E-01 -.104710E+00 0.853096E-01
   Pulay + GGA                   : 0.186089E+00 0.297798E-01 0.386667E-02
   Van der Waals               : -.118608E-02 0.474657E-02 0.314822E-02
   ----------------------------------------------------------------
   Total forces(   3)            : 0.201875E+00 -.701841E-01 0.923245E-01
  atom #    4
   Hellmann-Feynman + Multipole  : 0.397668E-01 -.997922E-03 0.155669E+00
   Pulay + GGA                   : -.602341E-01 -.524361E-01 0.144324E+00
   Van der Waals               : 0.273037E-03 0.335591E-02 0.474103E-03
   ----------------------------------------------------------------
   Total forces(   4)            : -.201942E-01 -.500781E-01 0.300468E+00
  atom #    5
   Hellmann-Feynman + Multipole  : 0.682943E+01 -.764392E+01 -.109075E+02
   Pulay + GGA                   : -.814882E+01 0.905669E+01 0.123828E+02
   Van der Waals               : -.288852E-04 0.778700E-03 -.736047E-02
   ----------------------------------------------------------------
   Total forces(   5)            : -.131942E+01 0.141355E+01 0.146795E+01
  atom #    6
   Hellmann-Feynman + Multipole  : -.468680E+00 0.329832E+00 -.224064E+01
   Pulay + GGA                   : 0.174394E-01 -.761097E-03 0.142982E+00
   Van der Waals               : -.761118E-04 -.598413E-04 -.220099E-02
   ----------------------------------------------------------------
   Total forces(   6)            : -.451317E+00 0.329011E+00 -.209986E+01
  atom #    7
   Hellmann-Feynman + Multipole  : 0.188067E+01 -.184209E+01 0.563606E+00
   Pulay + GGA                   : -.101389E+00 0.927482E-01 -.115031E-01
   Van der Waals               : 0.180846E-03 -.193826E-02 -.311190E-02
   ----------------------------------------------------------------
   Total forces(   7)            : 0.177946E+01 -.175128E+01 0.548991E+00
  atom #    8
   Hellmann-Feynman + Multipole  : -.142446E+02 -.522919E+01 0.435982E+00
   Pulay + GGA                   : 0.153018E+02 0.656919E+01 -.957263E+00
   Van der Waals               : 0.962673E-03 -.543446E-02 0.375573E-02
   ----------------------------------------------------------------
   Total forces(   8)            : 0.105810E+01 0.133456E+01 -.517525E+00
  atom #    9
   Hellmann-Feynman + Multipole  : -.535637E+00 0.321557E-01 -.108973E+00
   Pulay + GGA                   : 0.128365E+00 -.590259E-01 0.295787E-01
   Van der Waals               : -.154312E-03 -.346526E-02 -.607196E-03
   ----------------------------------------------------------------
   Total forces(   9)            : -.407427E+00 -.303355E-01 -.800014E-01
  atom #   10
   Hellmann-Feynman + Multipole  : -.716817E+00 -.147112E+01 0.702011E+00
   Pulay + GGA                   : 0.506147E-01 0.115635E+00 -.663130E-01
   Van der Waals               : -.277392E-03 -.230295E-02 0.740541E-03
   ----------------------------------------------------------------
   Total forces(  10)            : -.666480E+00 -.135779E+01 0.636438E+00
  Timings for vdw_correction_hirshfeld (Tkatchenko-Scheffler 2009):
  | CPU time:        1.934 s, Wall clock time:        1.934 s.
  Removing unitary transformations (pure translations, rotations) from forces on atoms.
  Atomic forces before filtering:
  | Net force on center of mass :  0.593927E-02 -.205403E-02 0.858166E-02 eV/A
  | Net torque on center of mass:  -.130339E-01 0.313072E-03 -.671226E-02 eV
  Atomic forces after filtering:
  | Net force on center of mass :  0.178406E-15 0.178406E-15 -.892031E-16 eV/A
  | Net torque on center of mass:  0.755268E-15 -.113290E-14 0.944085E-16 eV
 
  Energy and forces in a compact form:
  | Total energy uncorrected      :         -0.626222938583661E+04 eV
  | Total energy corrected        :         -0.626223220678453E+04 eV  <-- do not rely on this value for anything but (periodic) metals
  | Electronic free energy        :         -0.626223502773245E+04 eV
  Total atomic forces (unitary forces cleaned) [eV/Ang]:
  |   1         -0.441173105334348E+00          0.863088639674746E+00         -0.564083321372561E+00
  |   2          0.271921135464440E+00         -0.681646396299446E+00          0.221497833162168E+00
  |   3          0.201622411120013E+00         -0.695104505563266E-01          0.910681686176498E-01
  |   4         -0.203537668646172E-01         -0.498616869702376E-01          0.299154056083170E+00
  |   5         -0.131994750093374E+01          0.141328688807249E+01          0.146706421565563E+01
  |   6         -0.451817134254084E+00          0.328562698393181E+00         -0.210076027633398E+01
  |   7          0.177877544293021E+01         -0.175165379643682E+01          0.548276625429283E+00
  |   8          0.105706036807502E+01          0.133490542320675E+01         -0.517928508716768E+00
  |   9         -0.408384627395730E+00         -0.298866245550500E-01         -0.805006878173382E-01
  |  10         -0.667703222807164E+00         -0.135728469452929E+01          0.636211895292746E+00
 
  ------------------------------------ 
  Start decomposition of the XC Energy 
  ------------------------------------ 
  Hartree-Fock part   :          0.000000000 Ha              0.000000000 eV
  ------------------------------------ 
  X Energy            :        -27.127711850 Ha           -738.182597759 eV
  C Energy GGA        :         -0.987719257 Ha            -26.877208487 eV
  Total XC Energy     :        -28.115431107 Ha           -765.059806246 eV
  LDA X and C from self-consistent density 
  X Energy LDA        :        -24.415300308 Ha           -664.374124370 eV
  C Energy LDA        :         -2.010560121 Ha            -54.710124523 eV
  ------------------------------------ 
  End decomposition of the XC Energy 
  ------------------------------------ 
  Performing Hirshfeld analysis of fragment charges and moments.
  ----------------------------------------------------------------------
  | Atom     1: O
  |   Hirshfeld charge        :     -0.11866413
  |   Free atom volume        :     23.95238533
  |   Hirshfeld volume        :     24.10569129
  |   Hirshfeld dipole vector :      0.00500162       0.02609660       0.02849593
  |   Hirshfeld dipole moment :      0.03896238
  |   Hirshfeld second moments:      0.03556961      -0.00362916      -0.01137373
  |                                 -0.00362916      -0.01146952      -0.02801902
  |                                 -0.01137373      -0.02801902       0.02146970
  ----------------------------------------------------------------------
  | Atom     2: H
  |   Hirshfeld charge        :      0.04961315
  |   Free atom volume        :     10.44207651
  |   Hirshfeld volume        :     14.01651118
  |   Hirshfeld dipole vector :      0.01359463      -0.00062551       0.02422068
  |   Hirshfeld dipole moment :      0.02778213
  |   Hirshfeld second moments:     -0.05280034       0.00830508       0.00267843
  |                                  0.00830508      -0.04105955       0.00997008
  |                                  0.00267843       0.00997008      -0.04388236
  ----------------------------------------------------------------------
  | Atom     3: H
  |   Hirshfeld charge        :      0.07099383
  |   Free atom volume        :     10.44207651
  |   Hirshfeld volume        :     14.12229507
  |   Hirshfeld dipole vector :      0.00003004       0.01378574       0.00963121
  |   Hirshfeld dipole moment :      0.01681689
  |   Hirshfeld second moments:     -0.05045637      -0.00670443      -0.00827318
  |                                 -0.00670443      -0.03321628       0.00510996
  |                                 -0.00827318       0.00510996      -0.03548375
  ----------------------------------------------------------------------
  | Atom     4: H
  |   Hirshfeld charge        :      0.10064907
  |   Free atom volume        :     10.44207651
  |   Hirshfeld volume        :     12.65193352
  |   Hirshfeld dipole vector :     -0.01078948       0.00999694       0.03923470
  |   Hirshfeld dipole moment :      0.04190123
  |   Hirshfeld second moments:     -0.01344243       0.00713338      -0.00486283
  |                                  0.00713338      -0.00526578       0.00091631
  |                                 -0.00486283       0.00091631      -0.00413906
  ----------------------------------------------------------------------
  | Atom     5: O
  |   Hirshfeld charge        :     -0.30847598
  |   Free atom volume        :     23.95238533
  |   Hirshfeld volume        :     23.36570310
  |   Hirshfeld dipole vector :     -0.02932982       0.04064142       0.04944456
  |   Hirshfeld dipole moment :      0.07040404
  |   Hirshfeld second moments:     -0.03711500      -0.04674165       0.03269190
  |                                 -0.04674165      -0.03798479      -0.03122931
  |                                  0.03269190      -0.03122931       0.01739467
  ----------------------------------------------------------------------
  | Atom     6: H
  |   Hirshfeld charge        :      0.13542971
  |   Free atom volume        :     10.44207651
  |   Hirshfeld volume        :      7.27120896
  |   Hirshfeld dipole vector :      0.01912130      -0.00893805       0.12282190
  |   Hirshfeld dipole moment :      0.12462236
  |   Hirshfeld second moments:      0.09778039      -0.01875697       0.00803570
  |                                 -0.01875697       0.09399696      -0.00991098
  |                                  0.00803570      -0.00991098       0.09343424
  ----------------------------------------------------------------------
  | Atom     7: H
  |   Hirshfeld charge        :      0.13254337
  |   Free atom volume        :     10.44207651
  |   Hirshfeld volume        :      7.95161791
  |   Hirshfeld dipole vector :     -0.07676074       0.08248453      -0.00739800
  |   Hirshfeld dipole moment :      0.11291873
  |   Hirshfeld second moments:      0.07843640      -0.00841976      -0.00529148
  |                                 -0.00841976       0.06961956      -0.00111535
  |                                 -0.00529148      -0.00111535       0.09532518
  ----------------------------------------------------------------------
  | Atom     8: O
  |   Hirshfeld charge        :     -0.30660130
  |   Free atom volume        :     23.95238533
  |   Hirshfeld volume        :     23.30707863
  |   Hirshfeld dipole vector :      0.05548963       0.03165666       0.00518177
  |   Hirshfeld dipole moment :      0.06409442
  |   Hirshfeld second moments:     -0.01251770      -0.01806727       0.01626266
  |                                 -0.01806727       0.00944451      -0.06295688
  |                                  0.01626266      -0.06295688      -0.04095780
  ----------------------------------------------------------------------
  | Atom     9: H
  |   Hirshfeld charge        :      0.11014787
  |   Free atom volume        :     10.44207651
  |   Hirshfeld volume        :      8.85579856
  |   Hirshfeld dipole vector :      0.08688988      -0.01596250       0.04409626
  |   Hirshfeld dipole moment :      0.09873769
  |   Hirshfeld second moments:      0.06604475       0.01955371      -0.00160443
  |                                  0.01955371       0.06473234      -0.01886251
  |                                 -0.00160443      -0.01886251       0.05568904
  ----------------------------------------------------------------------
  | Atom    10: H
  |   Hirshfeld charge        :      0.13431322
  |   Free atom volume        :     10.44207651
  |   Hirshfeld volume        :      7.38537985
  |   Hirshfeld dipole vector :      0.03662671       0.10692777      -0.04807198
  |   Hirshfeld dipole moment :      0.12282499
  |   Hirshfeld second moments:      0.10619899      -0.01084785       0.01041415
  |                                 -0.01084785       0.09149766      -0.01900180
  |                                  0.01041415      -0.01900180       0.08447714
  ----------------------------------------------------------------------


------------------------------------------------------------------------------
  Final output of selected total energy values:

  The following output summarizes some interesting total energy values
  at the end of a run (AFTER all relaxation, molecular dynamics, etc.).

  | Total energy of the DFT / Hartree-Fock s.c.f. calculation      :          -6262.229385837 eV
  | Final zero-broadening corrected energy (caution - metals only) :          -6262.232206785 eV
  | For reference only, the value of 1 Hartree used in FHI-aims is :             27.211384500 eV

  Before relying on these values, please be sure to understand exactly which
  total energy value is referred to by a given number. Different objects may
  all carry the same name 'total energy'. Definitions:

  Total energy of the DFT / Hartree-Fock s.c.f. calculation:
  | Note that this energy does not include ANY quantities calculated after the
  | s.c.f. cycle, in particular not ANY RPA, MP2, etc. many-body perturbation terms.

  Final zero-broadening corrected energy:
  | For metallic systems only, a broadening of the occupation numbers at the Fermi
  | level can be extrapolated back to zero broadening by an electron-gas inspired
  | formula. For all systems that are not real metals, this value can be
  | meaningless and should be avoided.

------------------------------------------------------------------------------

------------------------------------------------------------
          Leaving FHI-aims.
          Date     :  20150727, Time     :  130330.191

          Computational steps:
          | Number of self-consistency cycles          :           15

          Detailed time accounting                     :  max(cpu_time)    wall_clock(cpu1)
          | Total time                                 :       15.249 s          15.276 s
          | Preparation time                           :        0.171 s           0.530 s
          | Grid partitioning                          :        0.094 s           0.094 s
          | Preloading free-atom quantities on grid    :        0.014 s           0.014 s
          | Free-atom superposition energy             :        0.034 s           0.034 s
          | Total time for integrations                :        5.628 s           5.630 s
          | Total time for solution of K.-S. equations :        0.347 s           0.348 s
          | Total time for density & force components  :        5.373 s           5.371 s
          | Total time for mixing                      :        0.122 s           0.121 s
          | Total time for Hartree multipole update    :        0.058 s           0.058 s
          | Total time for Hartree multipole sum       :        2.889 s           2.888 s
          | Total time for total energy evaluation     :        0.006 s           0.005 s
          | Total time for scaled ZORA corrections     :        0.000 s           0.000 s
          | Total time for TS (2009) vdW correction    :        0.025 s           0.025 s

          Have a nice day.
------------------------------------------------------------
