  MPI-parallelism will be employed.
------------------------------------------------------------
          Invoking FHI-aims ...
          Version 081213
          Compiled on 2013/08/29 at 17:41:06 on host generoso.

          When using FHI-aims, please cite the following reference:

          Volker Blum, Ralf Gehrke, Felix Hanke, Paula Havu,
          Ville Havu, Xinguo Ren, Karsten Reuter, and Matthias Scheffler,
          'Ab Initio Molecular Simulations with Numeric Atom-Centered Orbitals: FHI-aims',
          Computer Physics Communications 180, 2175-2196 (2009)

          For any questions about FHI-aims, please visit the aimsclub website
          with its forums and wiki. Contributions to both the forums and the
          wiki are warmly encouraged - they are for you, and everyone is welcome there.

------------------------------------------------------------

  Date     :  20150727, Time     :  122928.331
  Time zero on CPU 1             :   0.449920000000000E-01  s.
  Internal wall clock time zero  :           207232168.331  s.

  Using        8 parallel tasks.
  Task        0 on host gen59 reporting.
  Task        1 on host gen59 reporting.
  Task        2 on host gen59 reporting.
  Task        3 on host gen59 reporting.
  Task        4 on host gen59 reporting.
  Task        5 on host gen59 reporting.
  Task        6 on host gen59 reporting.
  Task        7 on host gen59 reporting.

  Performing system and environment tests:
  | Environment variable OMP_NUM_THREADS correctly set to 1.
  | Checking for scalapack...
  | No scalapack compiled in.

  Obtaining array dimensions for all initial allocations:
  
  -----------------------------------------------------------------------
  Parsing control.in (first pass over file, find array dimensions only).
  The contents of control.in will be repeated verbatim below
  unless switched off by setting 'verbatim_writeout .false.' .
  in the first line of control.in .
  -----------------------------------------------------------------------
  
  #########################################################################################
  #
  #  Volker Blum, FHI 2008 : Test run input file control.in
  #
  #########################################################################################
  #
  #  Physical model
  #
    xc                 rpbe
    spin               none
    relativistic       atomic_zora scalar
    charge             0.
   vdw_correction_hirshfeld
  #
  #  SCF convergence
  #
    occupation_type    gaussian 0.01
    mixer              pulay
      n_max_pulay        10
      charge_mix_param   0.1
    sc_accuracy_rho    5E-5
    sc_accuracy_eev    5E-3
    sc_accuracy_etot   5E-6
    sc_iter_limit      3000
  #
  #  Eigenvalue solver
  #
    KS_method          lapack
      empty_states       8
      basis_threshold    0.e-5
  #
  #  Efficiency
  #
  #   all previous settings are now default, except stratmann still
  #   undecided. Continue to handle stratmann with care, if at all.
  #
  #  partition_type stratmann
    partition_type rho_r2
  #  hartree_partition_type stratmann
  #
  #  Oprions for large clusters (100's of atoms: memory saving / better scaling)
  #
  # for periodic systems:
  #
    density_update_method orbital
    packed_matrix_format none
  #  k_grid 6 6 6
  #  output k_eigenvalue 1
  #  distributed_spline_storage .true.
  #
  #  Relaxation
  #
  #  relax_geometry   bfgs 5.e-3
    sc_accuracy_forces 5.E-4
    final_forces_cleaned .true.
  #
  #  Output options
  #
  #  output mulliken
    output Hirshfeld
  #  output dipole
  
  #harmonic_length_scale 0.001
  
  ################################################################################
  #
  #  FHI-aims code project
  #  VB, Fritz-Haber Institut, 2007
  #
  #  Suggested "safe" defaults for H atom (to be pasted into control.in file)
  #  Basis constructed for a non-relativistic H2 molecule using the
  #  PW-LDA functional.
  #
  ################################################################################
    species        H
  #     global species definitions
      nucleus             1
      cut_pot             4.0  2.0  1.0
      cut_free_atom       finite 8.0
      logarithmic         0.00010000 100.00  1.0123
      basis_dep_cutoff    1d-4  # 1d-4 is safe default - please check 5d-4 if you wish!
      radial_base         24 7.0
      radial_multiplier   2
      angular_grids       specified
        division   0.2783  110
        division   0.3822  194
        division   0.5626  302
  #      division   0.5922  434
  #      division   0.6227  590
  #      division   0.7206  770
        outer_grid  302
      l_hartree           4
  ################################################################################
  #
  #  Definition of "minimal" basis
  #
  ################################################################################
  #     valence basis states
      valence      1  s   1.
  #     ion occupancy
      ion_occ      1  s   0.5
  ################################################################################
  #
  #  Suggested additional basis functions. For production calculations,
  #  uncomment them one after another (the most important basis functions are
  #  listed first).
  #
  ################################################################################
  #  "First tier" - improvements: -1014.90 meV to -62.69 meV
       hydro 2 s 2.1
       hydro 2 p 3.5
  #  "Second tier" - improvements: -12.89 meV to -1.83 meV
       hydro 1 s 0.85
       hydro 2 p 3.7
       hydro 2 s 1.2
       hydro 3 d 7
  #  "Third tier" - improvements: -0.25 meV to -0.12 meV
  #     hydro 4 f 11.2
  #     hydro 3 p 4.8
  #     hydro 4 d 9
  #     hydro 3 s 3.2
  
  ################################################################################
  #
  #  FHI-aims code project
  #  VB, Fritz-Haber Institut, 2007
  #
  #  Suggested "safe" defaults for O atom (to be pasted into control.in file)
  #  All values have been tested for a non-relativistic, non-spinpolarized O2
  #  molecule using the PW-LDA functional. Validity for PBE is expected.
  #
  #  Constructed for dimers: 1.0 A, 1.208 A, 1.5 A, 2.0 A, 3.0 A
  #
  ################################################################################
    species        O
  #     global species definitions
      nucleus             8
      mass                15.9994
      l_hartree           4
      cut_pot             4.0  2.0  1.0
      cut_free_atom       finite 8.0
      basis_dep_cutoff    1d-4  # 1d-4 is safe default - please check 5d-4 if you wish!
      logarithmic         0.00010000 100.00  1.0123
      radial_base         36 7.0
      radial_multiplier   2
       angular_grids specified
        division   0.4087  110
        division   0.5181  194
        division   0.6184  302
  #      division   0.7315  434
  #      division   0.7934  590
  #      division   0.9656  770
  #      division   1.4041  974
  #      outer_grid 974
        outer_grid 302
  ################################################################################
  #
  #  Definition of "minimal" basis
  #
  ################################################################################
  #     valence basis states
      valence      2  s   2.
      valence      2  p   4.
  #     ion occupancy
      ion_occ      2  s   1.
      ion_occ      2  p   3.
  ################################################################################
  #
  #  Suggested additional basis functions. For production calculations,
  #  uncomment them one after another (the most important basis functions are
  #  listed first).
  #
  ################################################################################
  #  "First tier" - improvements: -699.05 meV to -159.38 meV
       hydro 2 p 1.8
       hydro 3 d 7.6
       hydro 3 s 6.4
  #  "Second tier" - improvements: -49.91 meV to -5.39 meV
       hydro 4 f 11.6
       hydro 3 p 6.2
       hydro 3 d 5.6
       hydro 5 g 17.6
       hydro 1 s 0.75
  #  "Third tier" - improvements: -2.83 meV to -0.50 meV
  #     ionic 2 p auto
  #     hydro 4 f 10.8
  #     hydro 4 d 4.7
  #     hydro 2 s 6.8
  #  "Fourth tier" - improvements: -0.40 meV to -0.12 meV
  #     hydro 3 p 5
  #     hydro 3 s 3.3
  #     hydro 5 g 15.6
  #     hydro 4 f 17.6
  #     hydro 4 d 14
  # Further basis functions - -0.08 meV and below
  #     hydro 3 s 2.1
  #     hydro 4 d 11.6
  #     hydro 3 p 16
  #     hydro 2 s 17.2
  
  
  -----------------------------------------------------------------------
  Completed first pass over input file control.in .
  -----------------------------------------------------------------------
  
  
  -----------------------------------------------------------------------
  Parsing geometry.in (first pass over file, find array dimensions only).
  The contents of geometry.in will be repeated verbatim below
  unless switched off by setting 'verbatim_writeout .false.' .
  in the first line of geometry.in .
  -----------------------------------------------------------------------
  
  atom      -4.053030000      0.065001000     -1.525160000  O
  atom      -4.566710000      0.974813000     -1.912820000  H
  atom      -3.067820000      0.330172000     -1.477310000  H
  atom      -4.370360000     -0.049164000     -0.572274000  H
  atom      -4.581760000     -0.256435000      0.939478000  O
  atom      -4.349860000      0.471090000      1.504340000  H
  atom      -5.393870000     -0.726611000      1.228070000  H
  atom      -1.975360000      2.858040000      0.453140000  O
  atom      -1.223550000      3.375850000      0.786238000  H
  atom      -2.537520000      2.567960000      1.156120000  H
  atom      -4.066610000      4.258280000     -0.900064000  O
  atom      -3.224110000      3.876870000     -0.569443000  H
  atom      -3.737450000      5.116530000     -1.322720000  H
  atom      -5.628340000      3.730740000      1.385610000  O
  atom      -6.090650000      4.418470000      1.860350000  H
  atom      -5.158540000      4.200260000      0.615875000  H
  
  -----------------------------------------------------------------------
  Completed first pass over input file geometry.in .
  -----------------------------------------------------------------------
  
 
  Basic array size parameters: 
  | Number of species                 :        2
  | Number of atoms                   :       16
  | Max. basis fn. angular momentum   :        4
  | Max. atomic/ionic basis occupied n:        2
  | Max. number of basis fn. types    :        2
  | Max. radial fns per species/type  :        8
  | Max. logarithmic grid size        :     1301
  | Max. radial integration grid size :       73
  | Max. angular integration grid size:      302
  | Max. angular grid division number :        8
  | Radial grid for Hartree potential :     1301
  | Number of spin channels           :        1

------------------------------------------------------------
          Reading file control.in.
------------------------------------------------------------
  XC: Using RPBE gradient-corrected functionals.
  Spin treatment: No spin polarisation.
  Scalar relativistic treatment of kinetic energy: on-site free-atom approximation to ZORA.
  Charge =   0.000000E+00: Neutral system requested explicitly.
  Using non-empirical van der Waals correction (Hirshfeld partitioning):
  Occupation type: Gaussian broadening, width =   0.100000E-01 eV.
  Using pulay charge density mixing.
  Pulay mixing - number of memorized iterations:   10
  Charge density mixing - mixing parameter:     0.1000
  Convergence accuracy of self-consistent charge density: 0.5000E-04
  Convergence accuracy of sum of eigenvalues: 0.5000E-02
  Convergence accuracy of total energy: 0.5000E-05
  Maximum number of s.-c. iterations  :  3000
  Kohn-Sham eigenvalues and eigenfunctions calculated by lapack diagonalisation (D&C).
  Number of empty states per atom:        8
  Threshold for basis singularities: 0.0000E+00
  Partition function in integrals calculations: rho / r^2
 Using packed matrix format           0
  Convergence accuracy of forces: 0.5000E-03
  Cleaning forces before final output.
  Hirshfeld charge analysis will be performed.
 
  Reading configuration options for species H                   .
  | Found nuclear charge :   1.0000
  | Found cutoff potl. onset [A], width [A], scale factor :    4.00000    2.00000    1.00000
  | Found cutoff specification for free atom: Cutoff potential begins at    8.00000 A.
  | Found logarithmic grid data [bohr] : 0.1000E-03 0.1000E+03 0.1012E+01
  | Threshold for basis-dependent cutoff potential is   0.100000E-03
  | Found data for basic radial integration grid :    24 points, outermost radius =    7.000 A
  | Found multiplier for basic radial grid :   2
  | Found angular grid specification: user-specified.
  | Specified grid contains     4 separate shells.
  | Check grid settings after all constraints further below.
  | Found l_max for Hartree potential  :   4
  | Found free-atom valence shell :  1 s   1.000
  | No ionic wave fns used. Skipping ion_occ.
  | Found hydrogenic basis function :  2 s   2.100
  | Found hydrogenic basis function :  2 p   3.500
  | Found hydrogenic basis function :  1 s   0.850
  | Found hydrogenic basis function :  2 p   3.700
  | Found hydrogenic basis function :  2 s   1.200
  | Found hydrogenic basis function :  3 d   7.000
  Species H                   : Missing cutoff potential type.
  Defaulting to exp(1/x)/(1-x)^2 type cutoff potential.
  Species H : On-site basis accuracy parameter (for Gram-Schmidt orthonormalisation) not specified.
  Using default value basis_acc =  0.1000000E-03.
  Species H                   : Using default innermost maximum threshold i_radial=  2 for radial functions.
  Species H                   : Basic radial grid will be enhanced according to radial_multiplier =   2, to contain    49 grid points.
 
  Reading configuration options for species O                   .
  | Found nuclear charge :   8.0000
  | Found atomic mass :    15.9994000000000      amu
  | Found l_max for Hartree potential  :   4
  | Found cutoff potl. onset [A], width [A], scale factor :    4.00000    2.00000    1.00000
  | Found cutoff specification for free atom: Cutoff potential begins at    8.00000 A.
  | Threshold for basis-dependent cutoff potential is   0.100000E-03
  | Found logarithmic grid data [bohr] : 0.1000E-03 0.1000E+03 0.1012E+01
  | Found data for basic radial integration grid :    36 points, outermost radius =    7.000 A
  | Found multiplier for basic radial grid :   2
  | Found angular grid specification: user-specified.
  | Specified grid contains     4 separate shells.
  | Check grid settings after all constraints further below.
  | Found free-atom valence shell :  2 s   2.000
  | Found free-atom valence shell :  2 p   4.000
  | No ionic wave fns used. Skipping ion_occ.
  | No ionic wave fns used. Skipping ion_occ.
  | Found hydrogenic basis function :  2 p   1.800
  | Found hydrogenic basis function :  3 d   7.600
  | Found hydrogenic basis function :  3 s   6.400
  | Found hydrogenic basis function :  4 f  11.600
  | Found hydrogenic basis function :  3 p   6.200
  | Found hydrogenic basis function :  3 d   5.600
  | Found hydrogenic basis function :  5 g  17.600
  | Found hydrogenic basis function :  1 s   0.750
  Species O                   : Missing cutoff potential type.
  Defaulting to exp(1/x)/(1-x)^2 type cutoff potential.
  Species O : On-site basis accuracy parameter (for Gram-Schmidt orthonormalisation) not specified.
  Using default value basis_acc =  0.1000000E-03.
  Species O                   : Using default innermost maximum threshold i_radial=  2 for radial functions.
  Species O                   : Basic radial grid will be enhanced according to radial_multiplier =   2, to contain    73 grid points.
 
  Finished reading input file 'control.in'. Consistency checks are next.
 
  Target number of points in a grid batch is not set. Defaulting to  100
  Method for grid partitioning is not set. Defaulting to parallel hash+maxmin partitioning.
  Batch size limit is not set. Defaulting to    200
  By default, will store active basis functions for each batch.
  If in need of memory, prune_basis_once .false. can be used to disable this option.
  communication_type for Hartree potential was not specified.
  Defaulting to calc_hartree .
  Pulay mixer: Number of initial linear mixing iterations not set.
  Defaulting to    0 iterations.
  Work space size for distributed Hartree potential not set.
  Defaulting to   0.200000E+03 MB.
  Algorithm-dependent basis array size parameters:
  | n_max_pulay                         :       10
  Geometry relaxation not requested: no relaxation will be performed.
  Handling of forces: Unphysical translation and rotation will be removed from forces.
  No accuracy limit for integral partition fn. given. Defaulting to 0.1000E-14.
  No threshold value for u(r) in integrations given. Defaulting to 0.1000E-05.
  No accuracy for occupation numbers given. Defaulting to 0.1000E-07.
  No threshold value for occupation numbers given. Defaulting to 0.0000E+00.
  No accuracy for fermi level given. Defaulting to 0.1000E-19.
  Maximum # of iterations to find E_F not set. Defaulting to  200.
  Will not use alltoall communication since running on < 1024 CPUs.
  Partitioning for Hartree potential was not defined. Using partition_type for integrals.
  | Reporting present value of keyword multip_moments_threshold  :       0.10000000E-09
  | This value may affect high angular momentum components of the Hartree potential in periodic systems.
  No q(lm)/r^(l+1) cutoff set for long-range Hartree potential.
  | Using default value of  0.100000E-09 .
  | Verify using the multipole_threshold keyword.
  Defaulting to new monopole extrapolation.
  Density update method: Loop over occupied states selected for charge density update.
------------------------------------------------------------


------------------------------------------------------------
          Reading geometry description geometry.in.
------------------------------------------------------------
  Input structure read successfully.
  The structure contains       16 atoms,  and a total of         51.000 electrons.

  Input geometry:
  | No unit cell requested.
  | Atomic structure:
  |       Atom                x [A]            y [A]            z [A]
  |    1: Species O             -4.053030         0.065001        -1.525160
  |    2: Species H             -4.566710         0.974813        -1.912820
  |    3: Species H             -3.067820         0.330172        -1.477310
  |    4: Species H             -4.370360        -0.049164        -0.572274
  |    5: Species O             -4.581760        -0.256435         0.939478
  |    6: Species H             -4.349860         0.471090         1.504340
  |    7: Species H             -5.393870        -0.726611         1.228070
  |    8: Species O             -1.975360         2.858040         0.453140
  |    9: Species H             -1.223550         3.375850         0.786238
  |   10: Species H             -2.537520         2.567960         1.156120
  |   11: Species O             -4.066610         4.258280        -0.900064
  |   12: Species H             -3.224110         3.876870        -0.569443
  |   13: Species H             -3.737450         5.116530        -1.322720
  |   14: Species O             -5.628340         3.730740         1.385610
  |   15: Species H             -6.090650         4.418470         1.860350
  |   16: Species H             -5.158540         4.200260         0.615875
  |

  | The smallest distance between any two atoms is         0.94570141 AA.
  |
  | The first atom of this pair is atom number                      8 .
  | The second atom of this pair is atom number                    10 .

  Structure-dependent array size parameters: 
  | Maximum number of distinct radial functions  :       18
  | Maximum number of basis functions            :      360
  | Number of Kohn-Sham states (occupied + empty):       90
------------------------------------------------------------

------------------------------------------------------------
          Preparing all fixed parts of the calculation.
------------------------------------------------------------
  Determining machine precision:
    2.225073858507201E-308
  Setting up grids for atomic and cluster calculations.

  Creating wave function, potential, and density for free atoms.

  Species: H

  List of occupied orbitals and eigenvalues:
    n    l              occ      energy [Ha]    energy [eV]
    1    0           1.0000        -0.241408        -6.5691


  Species: O

  List of occupied orbitals and eigenvalues:
    n    l              occ      energy [Ha]    energy [eV]
    1    0           2.0000       -18.944147      -515.4965
    2    0           2.0000        -0.883529       -24.0421
    2    1           4.0000        -0.330176        -8.9845

  Creating fixed part of basis set: Ionic, confined, hydrogenic.
 
  H                    hydrogenic:
 
  List of hydrogenic basis orbitals: 
    n    l      effective z      eigenvalue [eV]  inner max. [A]     outer max. [A]     outer radius [A]   
    2    0         2.100000       -14.9965           0.193241           1.317192           5.372934
    2    1         3.500000       -41.6672           0.602363           0.602363           4.056010
    1    0         0.850000        -9.8292           0.624864           0.624864           5.372934
    2    1         3.700000       -46.5653           0.573616           0.573616           3.909951
    2    0         1.200000        -4.5995           0.334977           2.228160           5.505921
    3    2         7.000000       -74.0753           0.680692           0.680692           3.769152
 
 
  O                    hydrogenic:
 
  List of hydrogenic basis orbitals: 
    n    l      effective z      eigenvalue [eV]  inner max. [A]     outer max. [A]     outer radius [A]   
    2    1         1.800000       -11.0118           1.178546           1.178546           5.432516
    3    2         7.600000       -87.3182           0.624117           0.624117           3.541422
    3    0         6.400000       -61.9209           0.061166           1.081887           4.306510
    4    3        11.600000      -114.4238           0.731621           0.731621           3.584982
    3    1         6.200000       -58.1113           0.255677           1.030255           4.306510
    3    2         5.600000       -47.4081           0.847222           0.847222           4.413102
    5    4        17.600000      -168.5799           0.749730           0.749730           3.372413
    1    0         0.750000        -7.6499           0.705275           0.705275           5.366508
 

  Adding cutoff potential to free-atom effective potential.
  Creating atomic-like basis functions for current effective potential.

  Species H                   :

  List of atomic basis orbitals and eigenvalues:
    n    l      energy [Ha]    energy [eV]    outer radius [A]
    1    0        -0.241374        -6.5681       5.372934


  Species O                   :

  List of atomic basis orbitals and eigenvalues:
    n    l      energy [Ha]    energy [eV]    outer radius [A]
    1    0       -18.944147      -515.4965       1.415745
    2    0        -0.883529       -24.0421       5.048305
    2    1        -0.330173        -8.9845       5.301302

  Assembling full basis from fixed parts.
  | Species H :   atomic orbital   1 s accepted.
  | Species H :    hydro orbital   2 s accepted.
  | Species H :    hydro orbital   1 s accepted.
  | Species H :    hydro orbital   2 s accepted.
  | Species H :    hydro orbital   2 p accepted.
  | Species H :    hydro orbital   2 p accepted.
  | Species H :    hydro orbital   3 d accepted.
  | Species O :   atomic orbital   1 s accepted.
  | Species O :    hydro orbital   3 s accepted.
  | Species O :   atomic orbital   2 s accepted.
  | Species O :    hydro orbital   1 s accepted.
  | Species O :    hydro orbital   3 p accepted.
  | Species O :   atomic orbital   2 p accepted.
  | Species O :    hydro orbital   2 p accepted.
  | Species O :    hydro orbital   3 d accepted.
  | Species O :    hydro orbital   3 d accepted.
  | Species O :    hydro orbital   4 f accepted.
  | Species O :    hydro orbital   5 g accepted.
 
  Basis size parameters after reduction:
  | Total number of radial functions:       18
  | Total number of basis functions :      360
 
  Testing on-site integration grid accuracy.
  |  Species  Function  <phi|h_atom|phi> (log., in eV)  <phi|h_atom|phi> (rad., in eV)
           1        1                 -6.5683835025                 -6.5684759159
           1        2                 13.3711789951                 13.3708738703
           1        3                 23.6590910787                 23.6532055418
           1        4                 16.2963827186                 16.1870710655 ***
           1        5                 28.7627214838                 28.7627215090
           1        6                 59.5965249172                 59.5965950857
           1        7                 60.2220506392                 60.2220503827
           2        8               -515.4964576505               -515.4964530710
           2        9                 15.3030791347                 15.3030722972
           2       10                -21.7296094581                -21.7296135470
           2       11                 14.2969371730                 14.2969701621
           2       12                 21.0679693190                 21.0679697493
           2       13                 -2.3833606469                 -2.3833613176
           2       14                 13.7067136422                 13.7066766629
           2       15                 45.8013116808                 45.8013116965
           2       16                 52.2309815402                 52.2309831494
           2       17                 85.4120732416                 85.4120732763
           2       18                142.1019167745                142.1019167817
 * Note: Onsite integrals marked "***" above are less accurate than
 * onsite_accuracy_threshold =    0.03000 eV. Usually, this is harmless.
 * When in doubt, tighten the "radial" and/or "radial_multiplier" flags to check.

  Preparing densities etc. for the partition functions (integrals / Hartree potential).

  Preparations completed.
  max(cpu_time)          :      0.173 s.
  Wall clock time (cpu1) :      0.499 s.
------------------------------------------------------------

------------------------------------------------------------
          Begin self-consistency loop: Initialization.

          Date     :  20150727, Time     :  122928.859
------------------------------------------------------------

  Initializing index lists of integration centers etc. from given atomic structure:
  | Number of centers in hartree potential         :        16
  | Number of centers in hartree multipole         :        16
  | Number of centers in electron density summation:        16
  | Number of centers in basis integrals           :        16
  | Number of centers in integrals                 :        16
  Partitioning the integration grid into batches with parallel hashing+maxmin method.
  | Number of batches:     2076
  | Maximal batch size:     190
  | Minimal batch size:      56
  | Average batch size:     100.339
  | Standard deviation of batch sizes:      33.078

  Integration load balanced across     8 MPI tasks.
  Work distribution over tasks is as follows:
  Task     0 has      26105 integration points.
  Task     1 has      25985 integration points.
  Task     2 has      26009 integration points.
  Task     3 has      26040 integration points.
  Task     4 has      26058 integration points.
  Task     5 has      26009 integration points.
  Task     6 has      26058 integration points.
  Task     7 has      26040 integration points.
  Initializing partition tables, free-atom densities, potentials, etc. across the integration grid (initialize_grid_storage).
  | Net number of integration points:   208304
  | of which are non-zero points    :   207740
  Obtaining max. number of non-zero basis functions in each batch (get_n_compute_maxes).
  | Maximal number of non-zero basis functions:      356 in task     0
  | Maximal number of non-zero basis functions:      357 in task     1
  | Maximal number of non-zero basis functions:      357 in task     2
  | Maximal number of non-zero basis functions:      356 in task     3
  | Maximal number of non-zero basis functions:      356 in task     4
  | Maximal number of non-zero basis functions:      356 in task     5
  | Maximal number of non-zero basis functions:      357 in task     6
  | Maximal number of non-zero basis functions:      356 in task     7
  Integrating Hamiltonian matrix: batch-based integration.
  Time summed over all CPUs for integration: real work        7.908 s, elapsed        7.999 s
  Integrating overlap matrix.
  Time summed over all CPUs for integration: real work        4.249 s, elapsed        4.293 s

  Updating Kohn-Sham eigenvalues, eigenvectors, occupation numbers, and Fermi level.
  Solving generalized eigenproblem
  Updating Kohn-Sham eigenvalues and eigenfunctions.
  Transforming overlap matrix and checking for singularities.
  Overlap matrix is nonsingular:
  | Lowest eigenvalue:  0.276902E-03
  Solving real generalised eigenvalue problem by standard LAPACK (fast)
  Determining occupation numbers for Kohn-Sham eigenstates.
  | Chemical potential (Fermi level) in eV                 : -.29685649E+01
  | Error in electron count due to remaining E_F inaccuracy: -.13464785E-10
  | Maximum occupation number of highest empty state:  0.00E+00

  Writing Kohn-Sham eigenvalues.

  State    Occupation    Eigenvalue [Ha]    Eigenvalue [eV]
      1       2.00000         -19.064912         -518.78264
      2       2.00000         -19.059142         -518.62564
      3       2.00000         -19.056667         -518.55830
      4       2.00000         -19.044636         -518.23091
      5       2.00000         -19.042610         -518.17580
      6       2.00000          -1.124575          -30.60123
      7       2.00000          -1.107487          -30.13626
      8       2.00000          -1.103414          -30.02543
      9       2.00000          -1.092015          -29.71523
     10       2.00000          -1.083938          -29.49544
     11       2.00000          -0.651629          -17.73174
     12       2.00000          -0.648878          -17.65688
     13       2.00000          -0.639687          -17.40678
     14       2.00000          -0.623339          -16.96191
     15       2.00000          -0.607674          -16.53565
     16       2.00000          -0.602238          -16.38773
     17       2.00000          -0.518571          -14.11104
     18       2.00000          -0.515302          -14.02209
     19       2.00000          -0.504546          -13.72940
     20       2.00000          -0.496870          -13.52051
     21       2.00000          -0.484567          -13.18573
     22       2.00000          -0.446151          -12.14039
     23       2.00000          -0.443773          -12.07567
     24       2.00000          -0.432848          -11.77839
     25       2.00000          -0.429382          -11.68407
     26       1.00000          -0.109093           -2.96856
     27       0.00000          -0.077672           -2.11356
     28       0.00000          -0.066370           -1.80603
     29       0.00000          -0.052763           -1.43574
     30       0.00000          -0.037341           -1.01609
     31       0.00000          -0.027463           -0.74731
     32       0.00000          -0.011729           -0.31917
     33       0.00000           0.029748            0.80949
     34       0.00000           0.037399            1.01767
     35       0.00000           0.044917            1.22225
     36       0.00000           0.050898            1.38500
     37       0.00000           0.061454            1.67226
     38       0.00000           0.064071            1.74347
     39       0.00000           0.083571            2.27408
     40       0.00000           0.089835            2.44452
     41       0.00000           0.093703            2.54978
     42       0.00000           0.103737            2.82282
     43       0.00000           0.106722            2.90404
     44       0.00000           0.115768            3.15021
     45       0.00000           0.119697            3.25711
     46       0.00000           0.131573            3.58028
     47       0.00000           0.137687            3.74665
     48       0.00000           0.141883            3.86083
     49       0.00000           0.144279            3.92602
     50       0.00000           0.158837            4.32218
     51       0.00000           0.166114            4.52018
     52       0.00000           0.174541            4.74950
     53       0.00000           0.207648            5.65038
     54       0.00000           0.219281            5.96695
     55       0.00000           0.230459            6.27111
     56       0.00000           0.247142            6.72506
     57       0.00000           0.262324            7.13820
     58       0.00000           0.268974            7.31916
     59       0.00000           0.276471            7.52315
     60       0.00000           0.284636            7.74533
     61       0.00000           0.302344            8.22719
     62       0.00000           0.311838            8.48555
     63       0.00000           0.340756            9.27245
     64       0.00000           0.352146            9.58238
     65       0.00000           0.354933            9.65823
     66       0.00000           0.361917            9.84826
     67       0.00000           0.372802           10.14446
     68       0.00000           0.380671           10.35857
     69       0.00000           0.393627           10.71113
     70       0.00000           0.410205           11.16224
     71       0.00000           0.415064           11.29446
     72       0.00000           0.426374           11.60222
     73       0.00000           0.439041           11.94692
     74       0.00000           0.458612           12.47946
     75       0.00000           0.465558           12.66848
     76       0.00000           0.471379           12.82687
     77       0.00000           0.488209           13.28483
     78       0.00000           0.517817           14.09051
     79       0.00000           0.519824           14.14513
     80       0.00000           0.538014           14.64012
     81       0.00000           0.550725           14.98599
     82       0.00000           0.565471           15.38725
     83       0.00000           0.583374           15.87441
     84       0.00000           0.612601           16.66973
     85       0.00000           0.642327           17.47860
     86       0.00000           0.643811           17.51898
     87       0.00000           0.660300           17.96768
     88       0.00000           0.696799           18.96086
     89       0.00000           0.745439           20.28441
     90       0.00000           0.751634           20.45299

  Highest occupied state (VBM) at    -11.68407099 eV
  | Occupation number:      2.00000000

  Lowest unoccupied state (CBM) at    -2.96856492 eV
  | Occupation number:      1.00000000

  Overall HOMO-LUMO gap:      8.71550607 eV.
  Calculating total energy contributions from superposition of free atom densities.

  Total energy components:
  | Sum of eigenvalues            :        -217.75879518 Ha       -5925.51830389 eV
  | XC energy correction          :         -45.92536220 Ha       -1249.69268926 eV
  | XC potential correction       :          58.68953407 Ha        1597.02347775 eV
  | Free-atom electrostatic energy:        -178.55229003 Ha       -4858.65501728 eV
  | Hartree energy correction     :           0.00000000 Ha           0.00000000 eV
  | van der Waals energy corr.    :           0.00000000 Ha           0.00000000 eV
  | Entropy correction            :          -0.00010367 Ha          -0.00282095 eV
  | ---------------------------
  | Total energy                  :        -383.54691334 Ha      -10436.84253267 eV
  | Total energy, T -> 0          :        -383.54701701 Ha      -10436.84535362 eV  <-- do not rely on this value for anything but (periodic) metals
  | Electronic free energy        :        -383.54712068 Ha      -10436.84817457 eV

  Derived energy quantities:
  | Kinetic energy                :         379.81226522 Ha       10335.21758684 eV
  | Electrostatic energy          :        -717.43381636 Ha      -19522.36743025 eV
  | Energy correction for multipole
  | error in Hartree potential    :           0.00000000 Ha           0.00000000 eV
  | Sum of eigenvalues per atom                           :        -370.34489399 eV
  | Total energy (T->0) per atom                          :        -652.30283460 eV  <-- do not rely on this value for anything but (periodic) metals
  | Electronic free energy per atom                       :        -652.30301091 eV
  Initialize hartree_potential_storage
  Max. number of atoms included in rho_multipole:           16

  End scf initialization - timings             :  max(cpu_time)    wall_clock(cpu1)
  | Time for scf. initialization               :        2.139 s           2.138 s
  | Boundary condition initialization          :        0.000 s           0.001 s
  | Integration                                :        1.540 s           1.540 s
  | Solution of K.-S. eqns.                    :        0.213 s           0.213 s
  | Grid partitioning                          :        0.144 s           0.143 s
  | Preloading free-atom quantities on grid    :        0.013 s           0.013 s
  | Free-atom superposition energy             :        0.072 s           0.072 s
  | Total energy evaluation                    :        0.001 s           0.001 s
------------------------------------------------------------

------------------------------------------------------------
          Begin self-consistency iteration #    1

  Date     :  20150727, Time     :  122930.998
------------------------------------------------------------
  Evaluating new KS density.
  Integration grid: deviation in total charge (<rho> - N_e) =  -1.344347E-11
  Pulay mixing of updated and previous charge densities.

  Evaluating partitioned Hartree potential by multipole expansion.
  | Analytical far-field extrapolation by fixed multipoles:
  | Hartree multipole sum: apparent total charge =  -0.565347E-06
  Summing up the Hartree potential.
  Time summed over all CPUs for potential: real work        2.896 s, elapsed        2.911 s
  | RMS charge density error from multipole expansion :   0.169347E-02

  Integrating Hamiltonian matrix: batch-based integration.
  Time summed over all CPUs for integration: real work        7.895 s, elapsed        7.996 s

  Updating Kohn-Sham eigenvalues, eigenvectors, occupation numbers, and Fermi level.
  Solving generalized eigenproblem
  Updating Kohn-Sham eigenvalues and eigenfunctions.
  Solving real generalised eigenvalue problem by standard LAPACK (fast)
  Determining occupation numbers for Kohn-Sham eigenstates.
  | Chemical potential (Fermi level) in eV                 : -.27581230E+01
  | Error in electron count due to remaining E_F inaccuracy: -.49461164E-08
  | Maximum occupation number of highest empty state:  0.00E+00

  Writing Kohn-Sham eigenvalues.

  State    Occupation    Eigenvalue [Ha]    Eigenvalue [eV]
      1       2.00000         -19.013400         -517.38095
      2       2.00000         -18.988028         -516.69053
      3       2.00000         -18.979199         -516.45028
      4       2.00000         -18.965928         -516.08916
      5       2.00000         -18.960324         -515.93666
      6       2.00000          -1.099199          -29.91073
      7       2.00000          -1.070821          -29.13853
      8       2.00000          -1.069423          -29.10048
      9       2.00000          -1.050205          -28.57754
     10       2.00000          -1.042205          -28.35985
     11       2.00000          -0.622828          -16.94802
     12       2.00000          -0.617655          -16.80724
     13       2.00000          -0.616233          -16.76855
     14       2.00000          -0.585544          -15.93345
     15       2.00000          -0.582210          -15.84275
     16       2.00000          -0.572845          -15.58791
     17       2.00000          -0.485311          -13.20598
     18       2.00000          -0.479852          -13.05742
     19       2.00000          -0.464739          -12.64619
     20       2.00000          -0.457151          -12.43972
     21       2.00000          -0.454274          -12.36144
     22       2.00000          -0.411101          -11.18662
     23       2.00000          -0.404044          -10.99460
     24       2.00000          -0.391253          -10.64654
     25       2.00000          -0.384305          -10.45747
     26       1.00000          -0.101359           -2.75812
     27       0.00000          -0.069280           -1.88521
     28       0.00000          -0.058355           -1.58792
     29       0.00000          -0.044760           -1.21797
     30       0.00000          -0.028860           -0.78533
     31       0.00000          -0.020674           -0.56257
     32       0.00000          -0.004620           -0.12571
     33       0.00000           0.041182            1.12062
     34       0.00000           0.044779            1.21850
     35       0.00000           0.054546            1.48427
     36       0.00000           0.057262            1.55818
     37       0.00000           0.067265            1.83038
     38       0.00000           0.070567            1.92021
     39       0.00000           0.093054            2.53214
     40       0.00000           0.096777            2.63344
     41       0.00000           0.101860            2.77174
     42       0.00000           0.111762            3.04119
     43       0.00000           0.115528            3.14366
     44       0.00000           0.125340            3.41066
     45       0.00000           0.130460            3.55000
     46       0.00000           0.144582            3.93427
     47       0.00000           0.146167            3.97741
     48       0.00000           0.150611            4.09833
     49       0.00000           0.153054            4.16482
     50       0.00000           0.167919            4.56930
     51       0.00000           0.174260            4.74187
     52       0.00000           0.183175            4.98443
     53       0.00000           0.217441            5.91688
     54       0.00000           0.227177            6.18179
     55       0.00000           0.236314            6.43043
     56       0.00000           0.254430            6.92339
     57       0.00000           0.271416            7.38560
     58       0.00000           0.275755            7.50367
     59       0.00000           0.285119            7.75848
     60       0.00000           0.291807            7.94048
     61       0.00000           0.309690            8.42710
     62       0.00000           0.319071            8.68235
     63       0.00000           0.348955            9.49556
     64       0.00000           0.360232            9.80242
     65       0.00000           0.362391            9.86117
     66       0.00000           0.372985           10.14944
     67       0.00000           0.379488           10.32640
     68       0.00000           0.388247           10.56473
     69       0.00000           0.401940           10.93735
     70       0.00000           0.417763           11.36791
     71       0.00000           0.425014           11.56522
     72       0.00000           0.434857           11.83307
     73       0.00000           0.448134           12.19434
     74       0.00000           0.468679           12.75340
     75       0.00000           0.473393           12.88169
     76       0.00000           0.479232           13.04057
     77       0.00000           0.500074           13.60770
     78       0.00000           0.528541           14.38232
     79       0.00000           0.528677           14.38603
     80       0.00000           0.550065           14.96803
     81       0.00000           0.560767           15.25924
     82       0.00000           0.576876           15.69758
     83       0.00000           0.595162           16.19518
     84       0.00000           0.624524           16.99416
     85       0.00000           0.652802           17.76366
     86       0.00000           0.654863           17.81974
     87       0.00000           0.674128           18.34396
     88       0.00000           0.707827           19.26094
     89       0.00000           0.755691           20.56340
     90       0.00000           0.763043           20.76344

  Highest occupied state (VBM) at    -10.45747209 eV
  | Occupation number:      2.00000000

  Lowest unoccupied state (CBM) at    -2.75812299 eV
  | Occupation number:      1.00000000

  Overall HOMO-LUMO gap:      7.69934910 eV.

  Total energy components:
  | Sum of eigenvalues            :        -215.63751393 Ha       -5867.79530419 eV
  | XC energy correction          :         -46.15259569 Ha       -1255.87602704 eV
  | XC potential correction       :          58.98651284 Ha        1605.10468116 eV
  | Free-atom electrostatic energy:        -178.55229003 Ha       -4858.65501728 eV
  | Hartree energy correction     :          -2.06305917 Ha         -56.13869624 eV
  | van der Waals energy corr.    :           0.00000000 Ha           0.00000000 eV
  | Entropy correction            :          -0.00010367 Ha          -0.00282095 eV
  | ---------------------------
  | Total energy                  :        -383.41894598 Ha      -10433.36036359 eV
  | Total energy, T -> 0          :        -383.41904965 Ha      -10433.36318454 eV  <-- do not rely on this value for anything but (periodic) metals
  | Electronic free energy        :        -383.41915331 Ha      -10433.36600548 eV

  Derived energy quantities:
  | Kinetic energy                :         381.19618815 Ha       10372.87604574 eV
  | Electrostatic energy          :        -718.46253844 Ha      -19550.36038229 eV
  | Energy correction for multipole
  | error in Hartree potential    :           0.00042394 Ha           0.01153589 eV
  | Sum of eigenvalues per atom                           :        -366.73720651 eV
  | Total energy (T->0) per atom                          :        -652.08519903 eV  <-- do not rely on this value for anything but (periodic) metals
  | Electronic free energy per atom                       :        -652.08537534 eV

  Self-consistency convergence accuracy:
  | Change of charge density      : 0.6480E+00
  | Change of sum of eigenvalues  : 0.5772E+02 eV
  | Change of total energy        : 0.3482E+01 eV

  End self-consistency iteration #     1       :  max(cpu_time)    wall_clock(cpu1)
  | Time for this iteration                    :        2.106 s           2.105 s
  | Charge density update                      :        0.669 s           0.668 s
  | Density mixing                             :        0.004 s           0.003 s
  | Hartree multipole update                   :        0.005 s           0.005 s
  | Hartree multipole summation                :        0.365 s           0.365 s
  | Integration                                :        1.001 s           1.001 s
  | Solution of K.-S. eqns.                    :        0.057 s           0.057 s
  | Total energy evaluation                    :        0.001 s           0.001 s
------------------------------------------------------------

------------------------------------------------------------
          Begin self-consistency iteration #    2

  Date     :  20150727, Time     :  122933.103
------------------------------------------------------------
  Evaluating new KS density.
  Integration grid: deviation in total charge (<rho> - N_e) =  -4.946088E-09
  Pulay mixing of updated and previous charge densities.

  Evaluating partitioned Hartree potential by multipole expansion.
  | Analytical far-field extrapolation by fixed multipoles:
  | Hartree multipole sum: apparent total charge =  -0.112397E-05
  Summing up the Hartree potential.
  Time summed over all CPUs for potential: real work        2.895 s, elapsed        2.910 s
  | RMS charge density error from multipole expansion :   0.688551E-02

  Integrating Hamiltonian matrix: batch-based integration.
  Time summed over all CPUs for integration: real work        7.874 s, elapsed        7.978 s

  Updating Kohn-Sham eigenvalues, eigenvectors, occupation numbers, and Fermi level.
  Solving generalized eigenproblem
  Updating Kohn-Sham eigenvalues and eigenfunctions.
  Solving real generalised eigenvalue problem by standard LAPACK (fast)
  Determining occupation numbers for Kohn-Sham eigenstates.
  | Chemical potential (Fermi level) in eV                 : -.22482770E+01
  | Error in electron count due to remaining E_F inaccuracy: -.19433344E-10
  | Maximum occupation number of highest empty state:  0.00E+00

  Highest occupied state (VBM) at     -7.44466842 eV
  | Occupation number:      2.00000000

  Lowest unoccupied state (CBM) at    -2.24827695 eV
  | Occupation number:      1.00000000

  Overall HOMO-LUMO gap:      5.19639147 eV.

  Total energy components:
  | Sum of eigenvalues            :        -210.53463877 Ha       -5728.93900610 eV
  | XC energy correction          :         -46.72637098 Ha       -1271.48924710 eV
  | XC potential correction       :          59.73496150 Ha        1625.47100557 eV
  | Free-atom electrostatic energy:        -178.55229003 Ha       -4858.65501728 eV
  | Hartree energy correction     :          -7.19391209 Ha        -195.75630802 eV
  | van der Waals energy corr.    :           0.00000000 Ha           0.00000000 eV
  | Entropy correction            :          -0.00010367 Ha          -0.00282095 eV
  | ---------------------------
  | Total energy                  :        -383.27225037 Ha      -10429.36857293 eV
  | Total energy, T -> 0          :        -383.27235404 Ha      -10429.37139388 eV  <-- do not rely on this value for anything but (periodic) metals
  | Electronic free energy        :        -383.27245770 Ha      -10429.37421483 eV

  Derived energy quantities:
  | Kinetic energy                :         384.07783019 Ha       10451.28951516 eV
  | Electrostatic energy          :        -720.62370957 Ha      -19609.16884100 eV
  | Energy correction for multipole
  | error in Hartree potential    :           0.00087211 Ha           0.02373131 eV
  | Sum of eigenvalues per atom                           :        -358.05868788 eV
  | Total energy (T->0) per atom                          :        -651.83571212 eV  <-- do not rely on this value for anything but (periodic) metals
  | Electronic free energy per atom                       :        -651.83588843 eV

  Self-consistency convergence accuracy:
  | Change of charge density      : 0.4923E+00
  | Change of sum of eigenvalues  : 0.1389E+03 eV
  | Change of total energy        : 0.3992E+01 eV

  End self-consistency iteration #     2       :  max(cpu_time)    wall_clock(cpu1)
  | Time for this iteration                    :        2.098 s           2.097 s
  | Charge density update                      :        0.665 s           0.664 s
  | Density mixing                             :        0.006 s           0.006 s
  | Hartree multipole update                   :        0.005 s           0.005 s
  | Hartree multipole summation                :        0.365 s           0.365 s
  | Integration                                :        0.999 s           0.999 s
  | Solution of K.-S. eqns.                    :        0.057 s           0.056 s
  | Total energy evaluation                    :        0.000 s           0.001 s
------------------------------------------------------------

------------------------------------------------------------
          Begin self-consistency iteration #    3

  Date     :  20150727, Time     :  122935.201
------------------------------------------------------------
  Evaluating new KS density.
  Integration grid: deviation in total charge (<rho> - N_e) =  -1.939071E-11
  Pulay mixing of updated and previous charge densities.

  Evaluating partitioned Hartree potential by multipole expansion.
  | Analytical far-field extrapolation by fixed multipoles:
  | Hartree multipole sum: apparent total charge =   0.156672E-05
  Summing up the Hartree potential.
  Time summed over all CPUs for potential: real work        2.899 s, elapsed        2.919 s
  | RMS charge density error from multipole expansion :   0.139820E-01

  Integrating Hamiltonian matrix: batch-based integration.
  Time summed over all CPUs for integration: real work        7.871 s, elapsed        7.985 s

  Updating Kohn-Sham eigenvalues, eigenvectors, occupation numbers, and Fermi level.
  Solving generalized eigenproblem
  Updating Kohn-Sham eigenvalues and eigenfunctions.
  Solving real generalised eigenvalue problem by standard LAPACK (fast)
  Determining occupation numbers for Kohn-Sham eigenstates.
  | Chemical potential (Fermi level) in eV                 : -.22377972E+01
  | Error in electron count due to remaining E_F inaccuracy: 0.15774049E-11
  | Maximum occupation number of highest empty state:  0.00E+00

  Highest occupied state (VBM) at     -2.23779715 eV
  | Occupation number:      1.00000000

  Lowest unoccupied state (CBM) at    -1.30816494 eV
  | Occupation number:      0.00000000

  Overall HOMO-LUMO gap:      0.92963221 eV.

  Total energy components:
  | Sum of eigenvalues            :        -210.86415914 Ha       -5737.90571153 eV
  | XC energy correction          :         -46.70797318 Ha       -1270.98861754 eV
  | XC potential correction       :          59.70288348 Ha        1624.59811807 eV
  | Free-atom electrostatic energy:        -178.55229003 Ha       -4858.65501728 eV
  | Hartree energy correction     :          -6.84803047 Ha        -186.34439017 eV
  | van der Waals energy corr.    :           0.00000000 Ha           0.00000000 eV
  | Entropy correction            :          -0.00010367 Ha          -0.00282095 eV
  | ---------------------------
  | Total energy                  :        -383.26956934 Ha      -10429.29561845 eV
  | Total energy, T -> 0          :        -383.26967301 Ha      -10429.29843940 eV  <-- do not rely on this value for anything but (periodic) metals
  | Electronic free energy        :        -383.26977668 Ha      -10429.30126035 eV

  Derived energy quantities:
  | Kinetic energy                :         382.18589147 Ha       10399.80724328 eV
  | Electrostatic energy          :        -718.74748763 Ha      -19558.11424419 eV
  | Energy correction for multipole
  | error in Hartree potential    :          -0.00249078 Ha          -0.06777745 eV
  | Sum of eigenvalues per atom                           :        -358.61910697 eV
  | Total energy (T->0) per atom                          :        -651.83115246 eV  <-- do not rely on this value for anything but (periodic) metals
  | Electronic free energy per atom                       :        -651.83132877 eV

  Self-consistency convergence accuracy:
  | Change of charge density      : 0.2401E+00
  | Change of sum of eigenvalues  : -.8967E+01 eV
  | Change of total energy        : 0.7295E-01 eV

  End self-consistency iteration #     3       :  max(cpu_time)    wall_clock(cpu1)
  | Time for this iteration                    :        2.097 s           2.097 s
  | Charge density update                      :        0.660 s           0.660 s
  | Density mixing                             :        0.007 s           0.007 s
  | Hartree multipole update                   :        0.005 s           0.005 s
  | Hartree multipole summation                :        0.366 s           0.365 s
  | Integration                                :        1.000 s           1.000 s
  | Solution of K.-S. eqns.                    :        0.057 s           0.057 s
  | Total energy evaluation                    :        0.000 s           0.000 s
------------------------------------------------------------

------------------------------------------------------------
          Begin self-consistency iteration #    4

  Date     :  20150727, Time     :  122937.298
------------------------------------------------------------
  Evaluating new KS density.
  Integration grid: deviation in total charge (<rho> - N_e) =   1.605827E-12
  Pulay mixing of updated and previous charge densities.

  Evaluating partitioned Hartree potential by multipole expansion.
  | Analytical far-field extrapolation by fixed multipoles:
  | Hartree multipole sum: apparent total charge =   0.224024E-05
  Summing up the Hartree potential.
  Time summed over all CPUs for potential: real work        2.894 s, elapsed        2.910 s
  | RMS charge density error from multipole expansion :   0.181712E-01

  Integrating Hamiltonian matrix: batch-based integration.
  Time summed over all CPUs for integration: real work        7.867 s, elapsed        7.972 s

  Updating Kohn-Sham eigenvalues, eigenvectors, occupation numbers, and Fermi level.
  Solving generalized eigenproblem
  Updating Kohn-Sham eigenvalues and eigenfunctions.
  Solving real generalised eigenvalue problem by standard LAPACK (fast)
  Determining occupation numbers for Kohn-Sham eigenstates.
  | Chemical potential (Fermi level) in eV                 : -.20894447E+01
  | Error in electron count due to remaining E_F inaccuracy: -.19177548E-10
  | Maximum occupation number of highest empty state:  0.00E+00

  Highest occupied state (VBM) at     -6.16298767 eV
  | Occupation number:      2.00000000

  Lowest unoccupied state (CBM) at    -2.08944468 eV
  | Occupation number:      1.00000000

  Overall HOMO-LUMO gap:      4.07354299 eV.

  Total energy components:
  | Sum of eigenvalues            :        -209.47904315 Ha       -5700.21478773 eV
  | XC energy correction          :         -46.89047389 Ha       -1275.95471443 eV
  | XC potential correction       :          59.93836103 Ha        1631.00578827 eV
  | Free-atom electrostatic energy:        -178.55229003 Ha       -4858.65501728 eV
  | Hartree energy correction     :          -8.27933001 Ha        -225.29203221 eV
  | van der Waals energy corr.    :           0.00000000 Ha           0.00000000 eV
  | Entropy correction            :          -0.00010367 Ha          -0.00282095 eV
  | ---------------------------
  | Total energy                  :        -383.26277604 Ha      -10429.11076338 eV
  | Total energy, T -> 0          :        -383.26287971 Ha      -10429.11358433 eV  <-- do not rely on this value for anything but (periodic) metals
  | Electronic free energy        :        -383.26298338 Ha      -10429.11640527 eV

  Derived energy quantities:
  | Kinetic energy                :         382.31358959 Ha       10403.28208592 eV
  | Electrostatic energy          :        -718.68589174 Ha      -19556.43813487 eV
  | Energy correction for multipole
  | error in Hartree potential    :          -0.00367197 Ha          -0.09991942 eV
  | Sum of eigenvalues per atom                           :        -356.26342423 eV
  | Total energy (T->0) per atom                          :        -651.81959902 eV  <-- do not rely on this value for anything but (periodic) metals
  | Electronic free energy per atom                       :        -651.81977533 eV

  Self-consistency convergence accuracy:
  | Change of charge density      : 0.1147E+00
  | Change of sum of eigenvalues  : 0.3769E+02 eV
  | Change of total energy        : 0.1849E+00 eV

  End self-consistency iteration #     4       :  max(cpu_time)    wall_clock(cpu1)
  | Time for this iteration                    :        2.096 s           2.096 s
  | Charge density update                      :        0.661 s           0.661 s
  | Density mixing                             :        0.009 s           0.008 s
  | Hartree multipole update                   :        0.005 s           0.005 s
  | Hartree multipole summation                :        0.365 s           0.365 s
  | Integration                                :        0.998 s           0.998 s
  | Solution of K.-S. eqns.                    :        0.057 s           0.057 s
  | Total energy evaluation                    :        0.000 s           0.000 s
------------------------------------------------------------

------------------------------------------------------------
          Begin self-consistency iteration #    5

  Date     :  20150727, Time     :  122939.394
------------------------------------------------------------
  Evaluating new KS density.
  Integration grid: deviation in total charge (<rho> - N_e) =  -1.915623E-11
  Pulay mixing of updated and previous charge densities.

  Evaluating partitioned Hartree potential by multipole expansion.
  | Analytical far-field extrapolation by fixed multipoles:
  | Hartree multipole sum: apparent total charge =   0.230901E-05
  Summing up the Hartree potential.
  Time summed over all CPUs for potential: real work        2.894 s, elapsed        2.910 s
  | RMS charge density error from multipole expansion :   0.182109E-01

  Integrating Hamiltonian matrix: batch-based integration.
  Time summed over all CPUs for integration: real work        7.863 s, elapsed        7.986 s

  Updating Kohn-Sham eigenvalues, eigenvectors, occupation numbers, and Fermi level.
  Solving generalized eigenproblem
  Updating Kohn-Sham eigenvalues and eigenfunctions.
  Solving real generalised eigenvalue problem by standard LAPACK (fast)
  Determining occupation numbers for Kohn-Sham eigenstates.
  | Chemical potential (Fermi level) in eV                 : -.20877046E+01
  | Error in electron count due to remaining E_F inaccuracy: -.85265128E-13
  | Maximum occupation number of highest empty state:  0.00E+00

  Highest occupied state (VBM) at     -6.22038204 eV
  | Occupation number:      2.00000000

  Lowest unoccupied state (CBM) at    -2.08770458 eV
  | Occupation number:      1.00000000

  Overall HOMO-LUMO gap:      4.13267746 eV.

  Total energy components:
  | Sum of eigenvalues            :        -209.52758048 Ha       -5701.53555588 eV
  | XC energy correction          :         -46.88572171 Ha       -1275.82540104 eV
  | XC potential correction       :          59.93184255 Ha        1630.82841154 eV
  | Free-atom electrostatic energy:        -178.55229003 Ha       -4858.65501728 eV
  | Hartree energy correction     :          -8.22889340 Ha        -223.91958225 eV
  | van der Waals energy corr.    :           0.00000000 Ha           0.00000000 eV
  | Entropy correction            :          -0.00010367 Ha          -0.00282095 eV
  | ---------------------------
  | Total energy                  :        -383.26264306 Ha      -10429.10714492 eV
  | Total energy, T -> 0          :        -383.26274673 Ha      -10429.10996587 eV  <-- do not rely on this value for anything but (periodic) metals
  | Electronic free energy        :        -383.26285040 Ha      -10429.11278681 eV

  Derived energy quantities:
  | Kinetic energy                :         382.35366874 Ha       10404.37269502 eV
  | Electrostatic energy          :        -718.73059009 Ha      -19557.65443890 eV
  | Energy correction for multipole
  | error in Hartree potential    :          -0.00368805 Ha          -0.10035703 eV
  | Sum of eigenvalues per atom                           :        -356.34597224 eV
  | Total energy (T->0) per atom                          :        -651.81937287 eV  <-- do not rely on this value for anything but (periodic) metals
  | Electronic free energy per atom                       :        -651.81954918 eV

  Self-consistency convergence accuracy:
  | Change of charge density      : 0.1449E-01
  | Change of sum of eigenvalues  : -.1321E+01 eV
  | Change of total energy        : 0.3618E-02 eV

  End self-consistency iteration #     5       :  max(cpu_time)    wall_clock(cpu1)
  | Time for this iteration                    :        2.098 s           2.098 s
  | Charge density update                      :        0.660 s           0.660 s
  | Density mixing                             :        0.010 s           0.010 s
  | Hartree multipole update                   :        0.005 s           0.005 s
  | Hartree multipole summation                :        0.365 s           0.365 s
  | Integration                                :        1.000 s           1.000 s
  | Solution of K.-S. eqns.                    :        0.057 s           0.057 s
  | Total energy evaluation                    :        0.000 s           0.001 s
------------------------------------------------------------

------------------------------------------------------------
          Begin self-consistency iteration #    6

  Date     :  20150727, Time     :  122941.493
------------------------------------------------------------
  Evaluating new KS density.
  Integration grid: deviation in total charge (<rho> - N_e) =  -6.394885E-14
  Pulay mixing of updated and previous charge densities.

  Evaluating partitioned Hartree potential by multipole expansion.
  | Analytical far-field extrapolation by fixed multipoles:
  | Hartree multipole sum: apparent total charge =   0.249973E-05
  Summing up the Hartree potential.
  Time summed over all CPUs for potential: real work        2.894 s, elapsed        2.910 s
  | RMS charge density error from multipole expansion :   0.183938E-01

  Integrating Hamiltonian matrix: batch-based integration.
  Time summed over all CPUs for integration: real work        7.862 s, elapsed        7.977 s

  Updating Kohn-Sham eigenvalues, eigenvectors, occupation numbers, and Fermi level.
  Solving generalized eigenproblem
  Updating Kohn-Sham eigenvalues and eigenfunctions.
  Solving real generalised eigenvalue problem by standard LAPACK (fast)
  Determining occupation numbers for Kohn-Sham eigenstates.
  | Chemical potential (Fermi level) in eV                 : -.20898271E+01
  | Error in electron count due to remaining E_F inaccuracy: 0.17142554E-09
  | Maximum occupation number of highest empty state:  0.00E+00

  Highest occupied state (VBM) at     -2.08982715 eV
  | Occupation number:      1.00000000

  Lowest unoccupied state (CBM) at    -1.17836723 eV
  | Occupation number:      0.00000000

  Overall HOMO-LUMO gap:      0.91145991 eV.

  Total energy components:
  | Sum of eigenvalues            :        -209.59933645 Ha       -5703.48813514 eV
  | XC energy correction          :         -46.87930664 Ha       -1275.65083802 eV
  | XC potential correction       :          59.92298832 Ha        1630.58747568 eV
  | Free-atom electrostatic energy:        -178.55229003 Ha       -4858.65501728 eV
  | Hartree energy correction     :          -8.15466446 Ha        -221.89970998 eV
  | van der Waals energy corr.    :           0.00000000 Ha           0.00000000 eV
  | Entropy correction            :          -0.00010367 Ha          -0.00282095 eV
  | ---------------------------
  | Total energy                  :        -383.26260925 Ha      -10429.10622473 eV
  | Total energy, T -> 0          :        -383.26271292 Ha      -10429.10904568 eV  <-- do not rely on this value for anything but (periodic) metals
  | Electronic free energy        :        -383.26281658 Ha      -10429.11186663 eV

  Derived energy quantities:
  | Kinetic energy                :         382.35154119 Ha       10404.31480159 eV
  | Electrostatic energy          :        -718.73484380 Ha      -19557.77018831 eV
  | Energy correction for multipole
  | error in Hartree potential    :          -0.00378189 Ha          -0.10291047 eV
  | Sum of eigenvalues per atom                           :        -356.46800845 eV
  | Total energy (T->0) per atom                          :        -651.81931536 eV  <-- do not rely on this value for anything but (periodic) metals
  | Electronic free energy per atom                       :        -651.81949166 eV

  Self-consistency convergence accuracy:
  | Change of charge density      : 0.9180E-02
  | Change of sum of eigenvalues  : -.1953E+01 eV
  | Change of total energy        : 0.9202E-03 eV

  End self-consistency iteration #     6       :  max(cpu_time)    wall_clock(cpu1)
  | Time for this iteration                    :        2.099 s           2.098 s
  | Charge density update                      :        0.661 s           0.659 s
  | Density mixing                             :        0.011 s           0.011 s
  | Hartree multipole update                   :        0.005 s           0.005 s
  | Hartree multipole summation                :        0.365 s           0.365 s
  | Integration                                :        0.999 s           0.998 s
  | Solution of K.-S. eqns.                    :        0.057 s           0.057 s
  | Total energy evaluation                    :        0.001 s           0.000 s
------------------------------------------------------------

------------------------------------------------------------
          Begin self-consistency iteration #    7

  Date     :  20150727, Time     :  122943.591
------------------------------------------------------------
  Evaluating new KS density.
  Integration grid: deviation in total charge (<rho> - N_e) =   1.714469E-10
  Pulay mixing of updated and previous charge densities.

  Evaluating partitioned Hartree potential by multipole expansion.
  | Analytical far-field extrapolation by fixed multipoles:
  | Hartree multipole sum: apparent total charge =   0.255780E-05
  Summing up the Hartree potential.
  Time summed over all CPUs for potential: real work        2.895 s, elapsed        2.909 s
  | RMS charge density error from multipole expansion :   0.184425E-01

  Integrating Hamiltonian matrix: batch-based integration.
  Time summed over all CPUs for integration: real work        7.860 s, elapsed        7.989 s

  Updating Kohn-Sham eigenvalues, eigenvectors, occupation numbers, and Fermi level.
  Solving generalized eigenproblem
  Updating Kohn-Sham eigenvalues and eigenfunctions.
  Solving real generalised eigenvalue problem by standard LAPACK (fast)
  Determining occupation numbers for Kohn-Sham eigenstates.
  | Chemical potential (Fermi level) in eV                 : -.20972702E+01
  | Error in electron count due to remaining E_F inaccuracy: 0.00000000E+00
  | Maximum occupation number of highest empty state:  0.00E+00

  Highest occupied state (VBM) at     -2.09727017 eV
  | Occupation number:      1.00000000

  Lowest unoccupied state (CBM) at    -2.09727017 eV
  | Occupation number:      1.00000000

  Overall HOMO-LUMO gap:      0.00000000 eV.

  Total energy components:
  | Sum of eigenvalues            :        -209.63585430 Ha       -5704.48183626 eV
  | XC energy correction          :         -46.87611662 Ha       -1275.56403317 eV
  | XC potential correction       :          59.91859144 Ha        1630.46783026 eV
  | Free-atom electrostatic energy:        -178.55229003 Ha       -4858.65501728 eV
  | Hartree energy correction     :          -8.11693067 Ha        -220.87292151 eV
  | van der Waals energy corr.    :           0.00000000 Ha           0.00000000 eV
  | Entropy correction            :          -0.00010367 Ha          -0.00282095 eV
  | ---------------------------
  | Total energy                  :        -383.26260018 Ha      -10429.10597796 eV
  | Total energy, T -> 0          :        -383.26270385 Ha      -10429.10879891 eV  <-- do not rely on this value for anything but (periodic) metals
  | Electronic free energy        :        -383.26280752 Ha      -10429.11161986 eV

  Derived energy quantities:
  | Kinetic energy                :         382.37761171 Ha       10405.02421649 eV
  | Electrostatic energy          :        -718.76409527 Ha      -19558.56616128 eV
  | Energy correction for multipole
  | error in Hartree potential    :          -0.00381281 Ha          -0.10375185 eV
  | Sum of eigenvalues per atom                           :        -356.53011477 eV
  | Total energy (T->0) per atom                          :        -651.81929993 eV  <-- do not rely on this value for anything but (periodic) metals
  | Electronic free energy per atom                       :        -651.81947624 eV

  Self-consistency convergence accuracy:
  | Change of charge density      : 0.4492E-02
  | Change of sum of eigenvalues  : -.9937E+00 eV
  | Change of total energy        : 0.2468E-03 eV

  End self-consistency iteration #     7       :  max(cpu_time)    wall_clock(cpu1)
  | Time for this iteration                    :        2.103 s           2.102 s
  | Charge density update                      :        0.662 s           0.661 s
  | Density mixing                             :        0.013 s           0.013 s
  | Hartree multipole update                   :        0.005 s           0.005 s
  | Hartree multipole summation                :        0.364 s           0.365 s
  | Integration                                :        1.001 s           1.000 s
  | Solution of K.-S. eqns.                    :        0.057 s           0.057 s
  | Total energy evaluation                    :        0.000 s           0.001 s
------------------------------------------------------------

------------------------------------------------------------
          Begin self-consistency iteration #    8

  Date     :  20150727, Time     :  122945.694
------------------------------------------------------------
  Evaluating new KS density.
  Integration grid: deviation in total charge (<rho> - N_e) =   1.421085E-14
  Pulay mixing of updated and previous charge densities.

  Evaluating partitioned Hartree potential by multipole expansion.
  | Analytical far-field extrapolation by fixed multipoles:
  | Hartree multipole sum: apparent total charge =   0.257969E-05
  Summing up the Hartree potential.
  Time summed over all CPUs for potential: real work        2.894 s, elapsed        2.908 s
  | RMS charge density error from multipole expansion :   0.184466E-01

  Integrating Hamiltonian matrix: batch-based integration.
  Time summed over all CPUs for integration: real work        7.859 s, elapsed        7.948 s

  Updating Kohn-Sham eigenvalues, eigenvectors, occupation numbers, and Fermi level.
  Solving generalized eigenproblem
  Updating Kohn-Sham eigenvalues and eigenfunctions.
  Solving real generalised eigenvalue problem by standard LAPACK (fast)
  Determining occupation numbers for Kohn-Sham eigenstates.
  | Chemical potential (Fermi level) in eV                 : -.21012992E+01
  | Error in electron count due to remaining E_F inaccuracy: -.32216008E-10
  | Maximum occupation number of highest empty state:  0.00E+00

  Highest occupied state (VBM) at     -6.31958952 eV
  | Occupation number:      2.00000000

  Lowest unoccupied state (CBM) at    -2.10129924 eV
  | Occupation number:      1.00000000

  Overall HOMO-LUMO gap:      4.21829028 eV.

  Total energy components:
  | Sum of eigenvalues            :        -209.65246790 Ha       -5704.93391540 eV
  | XC energy correction          :         -46.87442830 Ha       -1275.51809176 eV
  | XC potential correction       :          59.91633002 Ha        1630.40629398 eV
  | Free-atom electrostatic energy:        -178.55229003 Ha       -4858.65501728 eV
  | Hartree energy correction     :          -8.09974154 Ha        -220.40518147 eV
  | van der Waals energy corr.    :           0.00000000 Ha           0.00000000 eV
  | Entropy correction            :          -0.00010367 Ha          -0.00282095 eV
  | ---------------------------
  | Total energy                  :        -383.26259775 Ha      -10429.10591194 eV
  | Total energy, T -> 0          :        -383.26270142 Ha      -10429.10873289 eV  <-- do not rely on this value for anything but (periodic) metals
  | Electronic free energy        :        -383.26280509 Ha      -10429.11155384 eV

  Derived energy quantities:
  | Kinetic energy                :         382.38147377 Ha       10405.12930844 eV
  | Electrostatic energy          :        -718.76964322 Ha      -19558.71712862 eV
  | Energy correction for multipole
  | error in Hartree potential    :          -0.00382472 Ha          -0.10407593 eV
  | Sum of eigenvalues per atom                           :        -356.55836971 eV
  | Total energy (T->0) per atom                          :        -651.81929581 eV  <-- do not rely on this value for anything but (periodic) metals
  | Electronic free energy per atom                       :        -651.81947211 eV

  Self-consistency convergence accuracy:
  | Change of charge density      : 0.1618E-02
  | Change of sum of eigenvalues  : -.4521E+00 eV
  | Change of total energy        : 0.6602E-04 eV

  End self-consistency iteration #     8       :  max(cpu_time)    wall_clock(cpu1)
  | Time for this iteration                    :        2.098 s           2.097 s
  | Charge density update                      :        0.661 s           0.660 s
  | Density mixing                             :        0.014 s           0.014 s
  | Hartree multipole update                   :        0.005 s           0.005 s
  | Hartree multipole summation                :        0.364 s           0.364 s
  | Integration                                :        0.996 s           0.996 s
  | Solution of K.-S. eqns.                    :        0.057 s           0.057 s
  | Total energy evaluation                    :        0.000 s           0.001 s
------------------------------------------------------------

------------------------------------------------------------
          Begin self-consistency iteration #    9

  Date     :  20150727, Time     :  122947.792
------------------------------------------------------------
  Evaluating new KS density.
  Integration grid: deviation in total charge (<rho> - N_e) =  -3.218048E-11
  Pulay mixing of updated and previous charge densities.

  Evaluating partitioned Hartree potential by multipole expansion.
  | Analytical far-field extrapolation by fixed multipoles:
  | Hartree multipole sum: apparent total charge =   0.258379E-05
  Summing up the Hartree potential.
  Time summed over all CPUs for potential: real work        2.895 s, elapsed        2.909 s
  | RMS charge density error from multipole expansion :   0.184550E-01

  Integrating Hamiltonian matrix: batch-based integration.
  Time summed over all CPUs for integration: real work        7.850 s, elapsed        7.950 s

  Updating Kohn-Sham eigenvalues, eigenvectors, occupation numbers, and Fermi level.
  Solving generalized eigenproblem
  Updating Kohn-Sham eigenvalues and eigenfunctions.
  Solving real generalised eigenvalue problem by standard LAPACK (fast)
  Determining occupation numbers for Kohn-Sham eigenstates.
  | Chemical potential (Fermi level) in eV                 : -.21018346E+01
  | Error in electron count due to remaining E_F inaccuracy: -.27526426E-10
  | Maximum occupation number of highest empty state:  0.00E+00

  Highest occupied state (VBM) at     -6.31731955 eV
  | Occupation number:      2.00000000

  Lowest unoccupied state (CBM) at    -2.10183457 eV
  | Occupation number:      1.00000000

  Overall HOMO-LUMO gap:      4.21548498 eV.

  Total energy components:
  | Sum of eigenvalues            :        -209.64893297 Ha       -5704.83772511 eV
  | XC energy correction          :         -46.87494323 Ha       -1275.53210370 eV
  | XC potential correction       :          59.91698932 Ha        1630.42423443 eV
  | Free-atom electrostatic energy:        -178.55229003 Ha       -4858.65501728 eV
  | Hartree energy correction     :          -8.10342073 Ha        -220.50529733 eV
[...]
   Van der Waals               : 0.291019E-03 0.233749E-02 0.113838E-02
   ----------------------------------------------------------------
   Total forces(   7)            : 0.166149E+00 0.467719E+00 0.288872E+00
  atom #    8
   Hellmann-Feynman + Multipole  : -.950342E+00 -.436087E+01 -.153422E+02
   Pulay + GGA                   : 0.176009E+01 0.466770E+01 0.135257E+02
   Van der Waals               : -.947627E-02 -.499856E-02 0.128244E-02
   ----------------------------------------------------------------
   Total forces(   8)            : 0.800274E+00 0.301830E+00 -.181523E+01
  atom #    9
   Hellmann-Feynman + Multipole  : -.295459E+00 -.185350E+00 0.403403E+00
   Pulay + GGA                   : 0.111023E+00 0.558424E-01 0.513598E-01
   Van der Waals               : -.496754E-02 -.883169E-03 -.174739E-02
   ----------------------------------------------------------------
   Total forces(   9)            : -.189403E+00 -.130391E+00 0.453016E+00
  atom #   10
   Hellmann-Feynman + Multipole  : -.467704E+00 -.114146E+00 0.129204E+01
   Pulay + GGA                   : -.651969E-01 -.676497E-01 0.998366E-01
   Van der Waals               : 0.915404E-03 -.589923E-02 -.153337E-02
   ----------------------------------------------------------------
   Total forces(  10)            : -.531985E+00 -.187695E+00 0.139034E+01
  atom #   11
   Hellmann-Feynman + Multipole  : -.120762E+02 -.524945E+01 -.136551E+01
   Pulay + GGA                   : 0.127977E+02 0.695730E+01 0.510321E+00
   Van der Waals               : -.254311E-02 -.554458E-03 -.347623E-02
   ----------------------------------------------------------------
   Total forces(  11)            : 0.718956E+00 0.170730E+01 -.858663E+00
  atom #   12
   Hellmann-Feynman + Multipole  : -.100300E+00 -.263980E+00 0.124649E+00
   Pulay + GGA                   : 0.838128E-01 -.334854E-01 0.140705E-01
   Van der Waals               : 0.677595E-03 -.457894E-02 -.274907E-02
   ----------------------------------------------------------------
   Total forces(  12)            : -.158100E-01 -.302045E+00 0.135971E+00
  atom #   13
   Hellmann-Feynman + Multipole  : -.789065E+00 -.141237E+01 0.668286E+00
   Pulay + GGA                   : 0.536144E-01 0.955746E-01 -.678328E-01
   Van der Waals               : 0.109029E-02 -.476014E-02 0.358456E-02
   ----------------------------------------------------------------
   Total forces(  13)            : -.734360E+00 -.132155E+01 0.604037E+00
  atom #   14
   Hellmann-Feynman + Multipole  : 0.103492E+01 -.151613E+02 0.133250E+01
   Pulay + GGA                   : -.624281E-01 0.152106E+02 -.254473E+01
   Van der Waals               : 0.164265E-02 -.711468E-02 -.109536E-03
   ----------------------------------------------------------------
   Total forces(  14)            : 0.974135E+00 0.422283E-01 -.121234E+01
  atom #   15
   Hellmann-Feynman + Multipole  : -.263762E+00 0.458918E+00 0.254204E+00
   Pulay + GGA                   : -.712809E-01 0.885321E-01 0.847338E-01
   Van der Waals               : 0.426830E-02 -.188825E-02 -.370694E-02
   ----------------------------------------------------------------
   Total forces(  15)            : -.330775E+00 0.545562E+00 0.335230E+00
  atom #   16
   Hellmann-Feynman + Multipole  : -.690415E+00 -.782137E+00 0.100044E+01
   Pulay + GGA                   : 0.367457E-01 0.627196E-01 -.636124E-01
   Van der Waals               : 0.807626E-03 -.469511E-02 0.258729E-03
   ----------------------------------------------------------------
   Total forces(  16)            : -.652862E+00 -.724112E+00 0.937083E+00
  Timings for vdw_correction_hirshfeld (Tkatchenko-Scheffler 2009):
  | CPU time:        5.591 s, Wall clock time:        5.594 s.
  Removing unitary transformations (pure translations, rotations) from forces on atoms.
  Atomic forces before filtering:
  | Net force on center of mass :  0.699338E-02 0.332534E-02 -.124892E-01 eV/A
  | Net torque on center of mass:  0.192721E-01 0.494796E-02 -.199053E-01 eV
  Atomic forces after filtering:
  | Net force on center of mass :  0.892031E-16 -.356812E-15 -.178406E-15 eV/A
  | Net torque on center of mass:  0.302107E-14 -.566451E-15 0.226580E-14 eV
 
  Energy and forces in a compact form:
  | Total energy uncorrected      :         -0.104291943601618E+05 eV
  | Total energy corrected        :         -0.104291971811097E+05 eV  <-- do not rely on this value for anything but (periodic) metals
  | Electronic free energy        :         -0.104292000020576E+05 eV
  Total atomic forces (unitary forces cleaned) [eV/Ang]:
  |   1         -0.108587295170060E-03          0.151590826208423E+01         -0.185496904268357E+01
  |   2          0.549762876241777E+00         -0.113097720488791E+01          0.435737303084689E+00
  |   3         -0.253548544411662E+00         -0.159655886880681E+00          0.556845104517444E-01
  |   4         -0.159652423755621E+00         -0.105383766675284E+00          0.118755095114178E+01
  |   5         -0.198040700762863E+00         -0.154163261190423E+01         -0.117014173445665E+01
  |   6         -0.135216343381938E+00          0.102383908489924E+01          0.108280049123302E+01
  |   7          0.166300001406270E+00          0.467457487479232E+00          0.290238705238910E+00
  |   8          0.799645949212627E+00          0.302192546229440E+00         -0.181441084006990E+01
  |   9         -0.190187739718631E+00         -0.129766553404378E+00          0.453779856386909E+00
  |  10         -0.532613678769100E+00         -0.187293403957660E+00          0.139117575134863E+01
  |  11          0.718126769196932E+00          0.170682425536385E+01         -0.858398119104756E+00
  |  12         -0.165807534074777E-01         -0.302233130583308E+00          0.136413624117445E+00
  |  13         -0.735352169970496E+00         -0.132204966007154E+01          0.604122918645602E+00
  |  14          0.973206410561728E+00          0.419494162448363E-01         -0.121209540996056E+01
  |  15         -0.331914375172040E+00          0.545290479003756E+00          0.335256406962935E+00
  |  16         -0.653826689974335E+00         -0.724469312939589E+00          0.937254627663764E+00
 
  ------------------------------------ 
  Start decomposition of the XC Energy 
  ------------------------------------ 
  Hartree-Fock part   :          0.000000000 Ha              0.000000000 eV
  ------------------------------------ 
  X Energy            :        -45.221157278 Ha          -1230.530298214 eV
  C Energy GGA        :         -1.654030094 Ha            -45.008448861 eV
  Total XC Energy     :        -46.875187371 Ha          -1275.538747074 eV
  LDA X and C from self-consistent density 
  X Energy LDA        :        -40.750201232 Ha          -1108.869394181 eV
  C Energy LDA        :         -3.338491222 Ha            -90.844968296 eV
  ------------------------------------ 
  End decomposition of the XC Energy 
  ------------------------------------ 
  Performing Hirshfeld analysis of fragment charges and moments.
  ----------------------------------------------------------------------
  | Atom     1: O
  |   Hirshfeld charge        :     -0.12336071
  |   Free atom volume        :     23.95238533
  |   Hirshfeld volume        :     22.93471454
  |   Hirshfeld dipole vector :      0.00465146       0.02190496       0.03741475
  |   Hirshfeld dipole moment :      0.04360421
  |   Hirshfeld second moments:      0.06079695      -0.00319479      -0.00839237
  |                                 -0.00319479       0.02021337      -0.02544137
  |                                 -0.00839237      -0.02544137       0.03122722
  ----------------------------------------------------------------------
  | Atom     2: H
  |   Hirshfeld charge        :      0.07212778
  |   Free atom volume        :     10.44207651
  |   Hirshfeld volume        :     13.12989912
  |   Hirshfeld dipole vector :      0.00651560       0.00652583       0.03091114
  |   Hirshfeld dipole moment :      0.03225737
  |   Hirshfeld second moments:     -0.02526820       0.01192437      -0.00747821
  |                                  0.01192437      -0.02153307       0.01845051
  |                                 -0.00747821       0.01845051      -0.02822607
  ----------------------------------------------------------------------
  | Atom     3: H
  |   Hirshfeld charge        :      0.10149528
  |   Free atom volume        :     10.44207651
  |   Hirshfeld volume        :     12.39476893
  |   Hirshfeld dipole vector :      0.01794604       0.01433106       0.01889042
  |   Hirshfeld dipole moment :      0.02973698
  |   Hirshfeld second moments:     -0.02393554      -0.00610478      -0.00156891
  |                                 -0.00610478       0.00928247       0.00782807
  |                                 -0.00156891       0.00782807       0.00508834
  ----------------------------------------------------------------------
  | Atom     4: H
  |   Hirshfeld charge        :      0.09880876
  |   Free atom volume        :     10.44207651
  |   Hirshfeld volume        :     10.14640419
  |   Hirshfeld dipole vector :     -0.01231494       0.00324120       0.02213324
  |   Hirshfeld dipole moment :      0.02553514
  |   Hirshfeld second moments:      0.04307833       0.01211528       0.00242996
  |                                  0.01211528       0.04896061       0.00345098
  |                                  0.00242996       0.00345098       0.00989330
  ----------------------------------------------------------------------
  | Atom     5: O
  |   Hirshfeld charge        :     -0.22380467
  |   Free atom volume        :     23.95238533
  |   Hirshfeld volume        :     22.05965982
  |   Hirshfeld dipole vector :     -0.02995842       0.02557763       0.00018656
  |   Hirshfeld dipole moment :      0.03939235
  |   Hirshfeld second moments:      0.02265702       0.05180729      -0.01267999
  |                                  0.05180729       0.03702691       0.01694201
  |                                 -0.01267999       0.01694201       0.05354870
  ----------------------------------------------------------------------
  | Atom     6: H
  |   Hirshfeld charge        :      0.12755973
  |   Free atom volume        :     10.44207651
  |   Hirshfeld volume        :      9.23992602
  |   Hirshfeld dipole vector :      0.01922989       0.06985936       0.04371945
  |   Hirshfeld dipole moment :      0.08462570
  |   Hirshfeld second moments:      0.05711309       0.02248303      -0.00872795
  |                                  0.02248303       0.05778616      -0.00421195
  |                                 -0.00872795      -0.00421195       0.06446682
  ----------------------------------------------------------------------
  | Atom     7: H
  |   Hirshfeld charge        :      0.13368474
  |   Free atom volume        :     10.44207651
  |   Hirshfeld volume        :      9.81149215
  |   Hirshfeld dipole vector :     -0.06815093      -0.04203606       0.01996265
  |   Hirshfeld dipole moment :      0.08252325
  |   Hirshfeld second moments:      0.03799141       0.01428620      -0.00285713
  |                                  0.01428620       0.05993982       0.01248451
  |                                 -0.00285713       0.01248451       0.06261579
  ----------------------------------------------------------------------
  | Atom     8: O
  |   Hirshfeld charge        :     -0.26492509
  |   Free atom volume        :     23.95238533
  |   Hirshfeld volume        :     22.25098078
  |   Hirshfeld dipole vector :     -0.01798652       0.04624712       0.04046815
  |   Hirshfeld dipole moment :      0.06403110
  |   Hirshfeld second moments:      0.05692382       0.04365107       0.00316327
  |                                  0.04365107      -0.00410168      -0.02536976
  |                                  0.00316327      -0.02536976       0.01673540
  ----------------------------------------------------------------------
  | Atom     9: H
  |   Hirshfeld charge        :      0.13570624
  |   Free atom volume        :     10.44207651
  |   Hirshfeld volume        :      8.47185794
  |   Hirshfeld dipole vector :      0.07672074       0.06467644       0.02685499
  |   Hirshfeld dipole moment :      0.10387638
  |   Hirshfeld second moments:      0.08897022       0.00892120      -0.00584772
  |                                  0.00892120       0.06184873      -0.01572234
  |                                 -0.00584772      -0.01572234       0.08095203
  ----------------------------------------------------------------------
  | Atom    10: H
  |   Hirshfeld charge        :      0.11971035
  |   Free atom volume        :     10.44207651
  |   Hirshfeld volume        :      8.83286986
  |   Hirshfeld dipole vector :     -0.06235704      -0.01639276       0.06019240
  |   Hirshfeld dipole moment :      0.08820572
  |   Hirshfeld second moments:      0.07213799       0.02032646       0.01414128
  |                                  0.02032646       0.06203938      -0.00234384
  |                                  0.01414128      -0.00234384       0.06152746
  ----------------------------------------------------------------------
  | Atom    11: O
  |   Hirshfeld charge        :     -0.26619382
  |   Free atom volume        :     23.95238533
  |   Hirshfeld volume        :     22.37364250
  |   Hirshfeld dipole vector :      0.02331213       0.02565255       0.03685124
  |   Hirshfeld dipole moment :      0.05059172
  |   Hirshfeld second moments:      0.02339337      -0.01349919      -0.01327742
  |                                 -0.01349919       0.03095366      -0.05170991
  |                                 -0.01327742      -0.05170991      -0.00565340
  ----------------------------------------------------------------------
  | Atom    12: H
  |   Hirshfeld charge        :      0.08697716
  |   Free atom volume        :     10.44207651
  |   Hirshfeld volume        :      8.91523947
  |   Hirshfeld dipole vector :      0.04716338      -0.00497810       0.02239449
  |   Hirshfeld dipole moment :      0.05244691
  |   Hirshfeld second moments:      0.04794528       0.02389208      -0.02027631
  |                                  0.02389208       0.06453666      -0.01147490
  |                                 -0.02027631      -0.01147490       0.04586222
  ----------------------------------------------------------------------
  | Atom    13: H
  |   Hirshfeld charge        :      0.13280655
  |   Free atom volume        :     10.44207651
  |   Hirshfeld volume        :      7.73114178
  |   Hirshfeld dipole vector :      0.03178984       0.09746716      -0.03981919
  |   Hirshfeld dipole moment :      0.10998185
  |   Hirshfeld second moments:      0.10245026      -0.01134111      -0.00059458
  |                                 -0.01134111       0.08162051      -0.01581296
  |                                 -0.00059458      -0.01581296       0.08238074
  ----------------------------------------------------------------------
  | Atom    14: O
  |   Hirshfeld charge        :     -0.33688917
  |   Free atom volume        :     23.95238533
  |   Hirshfeld volume        :     23.29344810
  |   Hirshfeld dipole vector :     -0.00180580       0.06949059      -0.01607754
  |   Hirshfeld dipole moment :      0.07134908
  |   Hirshfeld second moments:     -0.02898524      -0.02572784      -0.05971906
  |                                 -0.02572784      -0.02311229       0.00747839
  |                                 -0.05971906       0.00747839      -0.00465387
  ----------------------------------------------------------------------
  | Atom    15: H
  |   Hirshfeld charge        :      0.11971767
  |   Free atom volume        :     10.44207651
  |   Hirshfeld volume        :      7.34988398
  |   Hirshfeld dipole vector :     -0.06190487       0.08951081       0.05991518
  |   Hirshfeld dipole moment :      0.12423456
  |   Hirshfeld second moments:      0.08726536      -0.00086330      -0.01922078
  |                                 -0.00086330       0.08808867      -0.00582461
  |                                 -0.01922078      -0.00582461       0.10066025
  ----------------------------------------------------------------------
  | Atom    16: H
  |   Hirshfeld charge        :      0.08649947
  |   Free atom volume        :     10.44207651
  |   Hirshfeld volume        :      8.71092468
  |   Hirshfeld dipole vector :      0.01934076       0.04548275      -0.03528128
  |   Hirshfeld dipole moment :      0.06072491
  |   Hirshfeld second moments:      0.05340192      -0.02401173       0.00922186
  |                                 -0.02401173       0.07497816       0.00875282
  |                                  0.00922186       0.00875282       0.03239052
  ----------------------------------------------------------------------


------------------------------------------------------------------------------
  Final output of selected total energy values:

  The following output summarizes some interesting total energy values
  at the end of a run (AFTER all relaxation, molecular dynamics, etc.).

  | Total energy of the DFT / Hartree-Fock s.c.f. calculation      :         -10429.194360162 eV
  | Final zero-broadening corrected energy (caution - metals only) :         -10429.197181110 eV
  | For reference only, the value of 1 Hartree used in FHI-aims is :             27.211384500 eV

  Before relying on these values, please be sure to understand exactly which
  total energy value is referred to by a given number. Different objects may
  all carry the same name 'total energy'. Definitions:

  Total energy of the DFT / Hartree-Fock s.c.f. calculation:
  | Note that this energy does not include ANY quantities calculated after the
  | s.c.f. cycle, in particular not ANY RPA, MP2, etc. many-body perturbation terms.

  Final zero-broadening corrected energy:
  | For metallic systems only, a broadening of the occupation numbers at the Fermi
  | level can be extrapolated back to zero broadening by an electron-gas inspired
  | formula. For all systems that are not real metals, this value can be
  | meaningless and should be avoided.

------------------------------------------------------------------------------

------------------------------------------------------------
          Leaving FHI-aims.
          Date     :  20150727, Time     :  123010.278

          Computational steps:
          | Number of self-consistency cycles          :           15

          Detailed time accounting                     :  max(cpu_time)    wall_clock(cpu1)
          | Total time                                 :       41.896 s          41.947 s
          | Preparation time                           :        0.173 s           0.499 s
          | Grid partitioning                          :        0.144 s           0.143 s
          | Preloading free-atom quantities on grid    :        0.013 s           0.013 s
          | Free-atom superposition energy             :        0.072 s           0.072 s
          | Total time for integrations                :       16.501 s          16.503 s
          | Total time for solution of K.-S. equations :        1.071 s           1.067 s
          | Total time for density & force components  :       15.694 s          15.688 s
          | Total time for mixing                      :        0.199 s           0.195 s
          | Total time for Hartree multipole update    :        0.075 s           0.075 s
          | Total time for Hartree multipole sum       :        7.286 s           7.287 s
          | Total time for total energy evaluation     :        0.008 s           0.023 s
          | Total time for scaled ZORA corrections     :        0.000 s           0.000 s
          | Total time for TS (2009) vdW correction    :        0.063 s           0.066 s

          Have a nice day.
------------------------------------------------------------
