  MPI-parallelism will be employed.
------------------------------------------------------------
          Invoking FHI-aims ...
          Version 081213
          Compiled on 2013/08/29 at 17:41:06 on host generoso.

          When using FHI-aims, please cite the following reference:

          Volker Blum, Ralf Gehrke, Felix Hanke, Paula Havu,
          Ville Havu, Xinguo Ren, Karsten Reuter, and Matthias Scheffler,
          'Ab Initio Molecular Simulations with Numeric Atom-Centered Orbitals: FHI-aims',
          Computer Physics Communications 180, 2175-2196 (2009)

          For any questions about FHI-aims, please visit the aimsclub website
          with its forums and wiki. Contributions to both the forums and the
          wiki are warmly encouraged - they are for you, and everyone is welcome there.

------------------------------------------------------------

  Date     :  20150727, Time     :  125750.326
  Time zero on CPU 1             :   0.389930000000000E-01  s.
  Internal wall clock time zero  :           207233870.326  s.

  Using        8 parallel tasks.
  Task        0 on host gen59 reporting.
  Task        1 on host gen59 reporting.
  Task        2 on host gen59 reporting.
  Task        3 on host gen59 reporting.
  Task        4 on host gen59 reporting.
  Task        5 on host gen59 reporting.
  Task        6 on host gen59 reporting.
  Task        7 on host gen59 reporting.

  Performing system and environment tests:
  | Environment variable OMP_NUM_THREADS correctly set to 1.
  | Checking for scalapack...
  | No scalapack compiled in.

  Obtaining array dimensions for all initial allocations:
  
  -----------------------------------------------------------------------
  Parsing control.in (first pass over file, find array dimensions only).
  The contents of control.in will be repeated verbatim below
  unless switched off by setting 'verbatim_writeout .false.' .
  in the first line of control.in .
  -----------------------------------------------------------------------
  
  #########################################################################################
  #
  #  Volker Blum, FHI 2008 : Test run input file control.in
  #
  #########################################################################################
  #
  #  Physical model
  #
    xc                 rpbe
    spin               none
    relativistic       atomic_zora scalar
    charge             0.
   vdw_correction_hirshfeld
  #
  #  SCF convergence
  #
    occupation_type    gaussian 0.01
    mixer              pulay
      n_max_pulay        10
      charge_mix_param   0.1
    sc_accuracy_rho    5E-5
    sc_accuracy_eev    5E-3
    sc_accuracy_etot   5E-6
    sc_iter_limit      3000
  #
  #  Eigenvalue solver
  #
    KS_method          lapack
      empty_states       8
      basis_threshold    0.e-5
  #
  #  Efficiency
  #
  #   all previous settings are now default, except stratmann still
  #   undecided. Continue to handle stratmann with care, if at all.
  #
  #  partition_type stratmann
    partition_type rho_r2
  #  hartree_partition_type stratmann
  #
  #  Oprions for large clusters (100's of atoms: memory saving / better scaling)
  #
  # for periodic systems:
  #
    density_update_method orbital
    packed_matrix_format none
  #  k_grid 6 6 6
  #  output k_eigenvalue 1
  #  distributed_spline_storage .true.
  #
  #  Relaxation
  #
  #  relax_geometry   bfgs 5.e-3
    sc_accuracy_forces 5.E-4
    final_forces_cleaned .true.
  #
  #  Output options
  #
  #  output mulliken
    output Hirshfeld
  #  output dipole
  
  #harmonic_length_scale 0.001
  
  ################################################################################
  #
  #  FHI-aims code project
  #  VB, Fritz-Haber Institut, 2007
  #
  #  Suggested "safe" defaults for H atom (to be pasted into control.in file)
  #  Basis constructed for a non-relativistic H2 molecule using the
  #  PW-LDA functional.
  #
  ################################################################################
    species        H
  #     global species definitions
      nucleus             1
      cut_pot             4.0  2.0  1.0
      cut_free_atom       finite 8.0
      logarithmic         0.00010000 100.00  1.0123
      basis_dep_cutoff    1d-4  # 1d-4 is safe default - please check 5d-4 if you wish!
      radial_base         24 7.0
      radial_multiplier   2
      angular_grids       specified
        division   0.2783  110
        division   0.3822  194
        division   0.5626  302
  #      division   0.5922  434
  #      division   0.6227  590
  #      division   0.7206  770
        outer_grid  302
      l_hartree           4
  ################################################################################
  #
  #  Definition of "minimal" basis
  #
  ################################################################################
  #     valence basis states
      valence      1  s   1.
  #     ion occupancy
      ion_occ      1  s   0.5
  ################################################################################
  #
  #  Suggested additional basis functions. For production calculations,
  #  uncomment them one after another (the most important basis functions are
  #  listed first).
  #
  ################################################################################
  #  "First tier" - improvements: -1014.90 meV to -62.69 meV
       hydro 2 s 2.1
       hydro 2 p 3.5
  #  "Second tier" - improvements: -12.89 meV to -1.83 meV
       hydro 1 s 0.85
       hydro 2 p 3.7
       hydro 2 s 1.2
       hydro 3 d 7
  #  "Third tier" - improvements: -0.25 meV to -0.12 meV
  #     hydro 4 f 11.2
  #     hydro 3 p 4.8
  #     hydro 4 d 9
  #     hydro 3 s 3.2
  
  ################################################################################
  #
  #  FHI-aims code project
  #  VB, Fritz-Haber Institut, 2007
  #
  #  Suggested "safe" defaults for O atom (to be pasted into control.in file)
  #  All values have been tested for a non-relativistic, non-spinpolarized O2
  #  molecule using the PW-LDA functional. Validity for PBE is expected.
  #
  #  Constructed for dimers: 1.0 A, 1.208 A, 1.5 A, 2.0 A, 3.0 A
  #
  ################################################################################
    species        O
  #     global species definitions
      nucleus             8
      mass                15.9994
      l_hartree           4
      cut_pot             4.0  2.0  1.0
      cut_free_atom       finite 8.0
      basis_dep_cutoff    1d-4  # 1d-4 is safe default - please check 5d-4 if you wish!
      logarithmic         0.00010000 100.00  1.0123
      radial_base         36 7.0
      radial_multiplier   2
       angular_grids specified
        division   0.4087  110
        division   0.5181  194
        division   0.6184  302
  #      division   0.7315  434
  #      division   0.7934  590
  #      division   0.9656  770
  #      division   1.4041  974
  #      outer_grid 974
        outer_grid 302
  ################################################################################
  #
  #  Definition of "minimal" basis
  #
  ################################################################################
  #     valence basis states
      valence      2  s   2.
      valence      2  p   4.
  #     ion occupancy
      ion_occ      2  s   1.
      ion_occ      2  p   3.
  ################################################################################
  #
  #  Suggested additional basis functions. For production calculations,
  #  uncomment them one after another (the most important basis functions are
  #  listed first).
  #
  ################################################################################
  #  "First tier" - improvements: -699.05 meV to -159.38 meV
       hydro 2 p 1.8
       hydro 3 d 7.6
       hydro 3 s 6.4
  #  "Second tier" - improvements: -49.91 meV to -5.39 meV
       hydro 4 f 11.6
       hydro 3 p 6.2
       hydro 3 d 5.6
       hydro 5 g 17.6
       hydro 1 s 0.75
  #  "Third tier" - improvements: -2.83 meV to -0.50 meV
  #     ionic 2 p auto
  #     hydro 4 f 10.8
  #     hydro 4 d 4.7
  #     hydro 2 s 6.8
  #  "Fourth tier" - improvements: -0.40 meV to -0.12 meV
  #     hydro 3 p 5
  #     hydro 3 s 3.3
  #     hydro 5 g 15.6
  #     hydro 4 f 17.6
  #     hydro 4 d 14
  # Further basis functions - -0.08 meV and below
  #     hydro 3 s 2.1
  #     hydro 4 d 11.6
  #     hydro 3 p 16
  #     hydro 2 s 17.2
  
  
  -----------------------------------------------------------------------
  Completed first pass over input file control.in .
  -----------------------------------------------------------------------
  
  
  -----------------------------------------------------------------------
  Parsing geometry.in (first pass over file, find array dimensions only).
  The contents of geometry.in will be repeated verbatim below
  unless switched off by setting 'verbatim_writeout .false.' .
  in the first line of geometry.in .
  -----------------------------------------------------------------------
  
  atom      -4.053030000      0.065001000     -1.525160000  O
  atom      -4.566710000      0.974813000     -1.912820000  H
  atom      -3.067820000      0.330172000     -1.477310000  H
  atom      -4.370360000     -0.049164000     -0.572274000  H
  atom      -1.645860000      0.870179000     -1.502250000  O
  atom      -1.568890000      1.501730000     -0.721051000  H
  atom      -0.824432000      0.282220000     -1.377720000  H
  atom      -1.975360000      2.858040000      0.453140000  O
  atom      -1.223550000      3.375850000      0.786238000  H
  atom      -2.537520000      2.567960000      1.156120000  H
  atom      -4.066610000      4.258280000     -0.900064000  O
  atom      -3.224110000      3.876870000     -0.569443000  H
  atom      -3.737450000      5.116530000     -1.322720000  H
  atom      -5.628340000      3.730740000      1.385610000  O
  atom      -6.090650000      4.418470000      1.860350000  H
  atom      -5.158540000      4.200260000      0.615875000  H
  
  -----------------------------------------------------------------------
  Completed first pass over input file geometry.in .
  -----------------------------------------------------------------------
  
 
  Basic array size parameters: 
  | Number of species                 :        2
  | Number of atoms                   :       16
  | Max. basis fn. angular momentum   :        4
  | Max. atomic/ionic basis occupied n:        2
  | Max. number of basis fn. types    :        2
  | Max. radial fns per species/type  :        8
  | Max. logarithmic grid size        :     1301
  | Max. radial integration grid size :       73
  | Max. angular integration grid size:      302
  | Max. angular grid division number :        8
  | Radial grid for Hartree potential :     1301
  | Number of spin channels           :        1

------------------------------------------------------------
          Reading file control.in.
------------------------------------------------------------
  XC: Using RPBE gradient-corrected functionals.
  Spin treatment: No spin polarisation.
  Scalar relativistic treatment of kinetic energy: on-site free-atom approximation to ZORA.
  Charge =   0.000000E+00: Neutral system requested explicitly.
  Using non-empirical van der Waals correction (Hirshfeld partitioning):
  Occupation type: Gaussian broadening, width =   0.100000E-01 eV.
  Using pulay charge density mixing.
  Pulay mixing - number of memorized iterations:   10
  Charge density mixing - mixing parameter:     0.1000
  Convergence accuracy of self-consistent charge density: 0.5000E-04
  Convergence accuracy of sum of eigenvalues: 0.5000E-02
  Convergence accuracy of total energy: 0.5000E-05
  Maximum number of s.-c. iterations  :  3000
  Kohn-Sham eigenvalues and eigenfunctions calculated by lapack diagonalisation (D&C).
  Number of empty states per atom:        8
  Threshold for basis singularities: 0.0000E+00
  Partition function in integrals calculations: rho / r^2
 Using packed matrix format           0
  Convergence accuracy of forces: 0.5000E-03
  Cleaning forces before final output.
  Hirshfeld charge analysis will be performed.
 
  Reading configuration options for species H                   .
  | Found nuclear charge :   1.0000
  | Found cutoff potl. onset [A], width [A], scale factor :    4.00000    2.00000    1.00000
  | Found cutoff specification for free atom: Cutoff potential begins at    8.00000 A.
  | Found logarithmic grid data [bohr] : 0.1000E-03 0.1000E+03 0.1012E+01
  | Threshold for basis-dependent cutoff potential is   0.100000E-03
  | Found data for basic radial integration grid :    24 points, outermost radius =    7.000 A
  | Found multiplier for basic radial grid :   2
  | Found angular grid specification: user-specified.
  | Specified grid contains     4 separate shells.
  | Check grid settings after all constraints further below.
  | Found l_max for Hartree potential  :   4
  | Found free-atom valence shell :  1 s   1.000
  | No ionic wave fns used. Skipping ion_occ.
  | Found hydrogenic basis function :  2 s   2.100
  | Found hydrogenic basis function :  2 p   3.500
  | Found hydrogenic basis function :  1 s   0.850
  | Found hydrogenic basis function :  2 p   3.700
  | Found hydrogenic basis function :  2 s   1.200
  | Found hydrogenic basis function :  3 d   7.000
  Species H                   : Missing cutoff potential type.
  Defaulting to exp(1/x)/(1-x)^2 type cutoff potential.
  Species H : On-site basis accuracy parameter (for Gram-Schmidt orthonormalisation) not specified.
  Using default value basis_acc =  0.1000000E-03.
  Species H                   : Using default innermost maximum threshold i_radial=  2 for radial functions.
  Species H                   : Basic radial grid will be enhanced according to radial_multiplier =   2, to contain    49 grid points.
 
  Reading configuration options for species O                   .
  | Found nuclear charge :   8.0000
  | Found atomic mass :    15.9994000000000      amu
  | Found l_max for Hartree potential  :   4
  | Found cutoff potl. onset [A], width [A], scale factor :    4.00000    2.00000    1.00000
  | Found cutoff specification for free atom: Cutoff potential begins at    8.00000 A.
  | Threshold for basis-dependent cutoff potential is   0.100000E-03
  | Found logarithmic grid data [bohr] : 0.1000E-03 0.1000E+03 0.1012E+01
  | Found data for basic radial integration grid :    36 points, outermost radius =    7.000 A
  | Found multiplier for basic radial grid :   2
  | Found angular grid specification: user-specified.
  | Specified grid contains     4 separate shells.
  | Check grid settings after all constraints further below.
  | Found free-atom valence shell :  2 s   2.000
  | Found free-atom valence shell :  2 p   4.000
  | No ionic wave fns used. Skipping ion_occ.
  | No ionic wave fns used. Skipping ion_occ.
  | Found hydrogenic basis function :  2 p   1.800
  | Found hydrogenic basis function :  3 d   7.600
  | Found hydrogenic basis function :  3 s   6.400
  | Found hydrogenic basis function :  4 f  11.600
  | Found hydrogenic basis function :  3 p   6.200
  | Found hydrogenic basis function :  3 d   5.600
  | Found hydrogenic basis function :  5 g  17.600
  | Found hydrogenic basis function :  1 s   0.750
  Species O                   : Missing cutoff potential type.
  Defaulting to exp(1/x)/(1-x)^2 type cutoff potential.
  Species O : On-site basis accuracy parameter (for Gram-Schmidt orthonormalisation) not specified.
  Using default value basis_acc =  0.1000000E-03.
  Species O                   : Using default innermost maximum threshold i_radial=  2 for radial functions.
  Species O                   : Basic radial grid will be enhanced according to radial_multiplier =   2, to contain    73 grid points.
 
  Finished reading input file 'control.in'. Consistency checks are next.
 
  Target number of points in a grid batch is not set. Defaulting to  100
  Method for grid partitioning is not set. Defaulting to parallel hash+maxmin partitioning.
  Batch size limit is not set. Defaulting to    200
  By default, will store active basis functions for each batch.
  If in need of memory, prune_basis_once .false. can be used to disable this option.
  communication_type for Hartree potential was not specified.
  Defaulting to calc_hartree .
  Pulay mixer: Number of initial linear mixing iterations not set.
  Defaulting to    0 iterations.
  Work space size for distributed Hartree potential not set.
  Defaulting to   0.200000E+03 MB.
  Algorithm-dependent basis array size parameters:
  | n_max_pulay                         :       10
  Geometry relaxation not requested: no relaxation will be performed.
  Handling of forces: Unphysical translation and rotation will be removed from forces.
  No accuracy limit for integral partition fn. given. Defaulting to 0.1000E-14.
  No threshold value for u(r) in integrations given. Defaulting to 0.1000E-05.
  No accuracy for occupation numbers given. Defaulting to 0.1000E-07.
  No threshold value for occupation numbers given. Defaulting to 0.0000E+00.
  No accuracy for fermi level given. Defaulting to 0.1000E-19.
  Maximum # of iterations to find E_F not set. Defaulting to  200.
  Will not use alltoall communication since running on < 1024 CPUs.
  Partitioning for Hartree potential was not defined. Using partition_type for integrals.
  | Reporting present value of keyword multip_moments_threshold  :       0.10000000E-09
  | This value may affect high angular momentum components of the Hartree potential in periodic systems.
  No q(lm)/r^(l+1) cutoff set for long-range Hartree potential.
  | Using default value of  0.100000E-09 .
  | Verify using the multipole_threshold keyword.
  Defaulting to new monopole extrapolation.
  Density update method: Loop over occupied states selected for charge density update.
------------------------------------------------------------


------------------------------------------------------------
          Reading geometry description geometry.in.
------------------------------------------------------------
  Input structure read successfully.
  The structure contains       16 atoms,  and a total of         51.000 electrons.

  Input geometry:
  | No unit cell requested.
  | Atomic structure:
  |       Atom                x [A]            y [A]            z [A]
  |    1: Species O             -4.053030         0.065001        -1.525160
  |    2: Species H             -4.566710         0.974813        -1.912820
  |    3: Species H             -3.067820         0.330172        -1.477310
  |    4: Species H             -4.370360        -0.049164        -0.572274
  |    5: Species O             -1.645860         0.870179        -1.502250
  |    6: Species H             -1.568890         1.501730        -0.721051
  |    7: Species H             -0.824432         0.282220        -1.377720
  |    8: Species O             -1.975360         2.858040         0.453140
  |    9: Species H             -1.223550         3.375850         0.786238
  |   10: Species H             -2.537520         2.567960         1.156120
  |   11: Species O             -4.066610         4.258280        -0.900064
  |   12: Species H             -3.224110         3.876870        -0.569443
  |   13: Species H             -3.737450         5.116530        -1.322720
  |   14: Species O             -5.628340         3.730740         1.385610
  |   15: Species H             -6.090650         4.418470         1.860350
  |   16: Species H             -5.158540         4.200260         0.615875
  |

  | The smallest distance between any two atoms is         0.94570141 AA.
  |
  | The first atom of this pair is atom number                      8 .
  | The second atom of this pair is atom number                    10 .

  Structure-dependent array size parameters: 
  | Maximum number of distinct radial functions  :       18
  | Maximum number of basis functions            :      360
  | Number of Kohn-Sham states (occupied + empty):       90
------------------------------------------------------------

------------------------------------------------------------
          Preparing all fixed parts of the calculation.
------------------------------------------------------------
  Determining machine precision:
    2.225073858507201E-308
  Setting up grids for atomic and cluster calculations.

  Creating wave function, potential, and density for free atoms.

  Species: H

  List of occupied orbitals and eigenvalues:
    n    l              occ      energy [Ha]    energy [eV]
    1    0           1.0000        -0.241408        -6.5691


  Species: O

  List of occupied orbitals and eigenvalues:
    n    l              occ      energy [Ha]    energy [eV]
    1    0           2.0000       -18.944147      -515.4965
    2    0           2.0000        -0.883529       -24.0421
    2    1           4.0000        -0.330176        -8.9845

  Creating fixed part of basis set: Ionic, confined, hydrogenic.
 
  H                    hydrogenic:
 
  List of hydrogenic basis orbitals: 
    n    l      effective z      eigenvalue [eV]  inner max. [A]     outer max. [A]     outer radius [A]   
    2    0         2.100000       -14.9965           0.193241           1.317192           5.372934
    2    1         3.500000       -41.6672           0.602363           0.602363           4.056010
    1    0         0.850000        -9.8292           0.624864           0.624864           5.372934
    2    1         3.700000       -46.5653           0.573616           0.573616           3.909951
    2    0         1.200000        -4.5995           0.334977           2.228160           5.505921
    3    2         7.000000       -74.0753           0.680692           0.680692           3.769152
 
 
  O                    hydrogenic:
 
  List of hydrogenic basis orbitals: 
    n    l      effective z      eigenvalue [eV]  inner max. [A]     outer max. [A]     outer radius [A]   
    2    1         1.800000       -11.0118           1.178546           1.178546           5.432516
    3    2         7.600000       -87.3182           0.624117           0.624117           3.541422
    3    0         6.400000       -61.9209           0.061166           1.081887           4.306510
    4    3        11.600000      -114.4238           0.731621           0.731621           3.584982
    3    1         6.200000       -58.1113           0.255677           1.030255           4.306510
    3    2         5.600000       -47.4081           0.847222           0.847222           4.413102
    5    4        17.600000      -168.5799           0.749730           0.749730           3.372413
    1    0         0.750000        -7.6499           0.705275           0.705275           5.366508
 

  Adding cutoff potential to free-atom effective potential.
  Creating atomic-like basis functions for current effective potential.

  Species H                   :

  List of atomic basis orbitals and eigenvalues:
    n    l      energy [Ha]    energy [eV]    outer radius [A]
    1    0        -0.241374        -6.5681       5.372934


  Species O                   :

  List of atomic basis orbitals and eigenvalues:
    n    l      energy [Ha]    energy [eV]    outer radius [A]
    1    0       -18.944147      -515.4965       1.415745
    2    0        -0.883529       -24.0421       5.048305
    2    1        -0.330173        -8.9845       5.301302

  Assembling full basis from fixed parts.
  | Species H :   atomic orbital   1 s accepted.
  | Species H :    hydro orbital   2 s accepted.
  | Species H :    hydro orbital   1 s accepted.
  | Species H :    hydro orbital   2 s accepted.
  | Species H :    hydro orbital   2 p accepted.
  | Species H :    hydro orbital   2 p accepted.
  | Species H :    hydro orbital   3 d accepted.
  | Species O :   atomic orbital   1 s accepted.
  | Species O :    hydro orbital   3 s accepted.
  | Species O :   atomic orbital   2 s accepted.
  | Species O :    hydro orbital   1 s accepted.
  | Species O :    hydro orbital   3 p accepted.
  | Species O :   atomic orbital   2 p accepted.
  | Species O :    hydro orbital   2 p accepted.
  | Species O :    hydro orbital   3 d accepted.
  | Species O :    hydro orbital   3 d accepted.
  | Species O :    hydro orbital   4 f accepted.
  | Species O :    hydro orbital   5 g accepted.
 
  Basis size parameters after reduction:
  | Total number of radial functions:       18
  | Total number of basis functions :      360
 
  Testing on-site integration grid accuracy.
  |  Species  Function  <phi|h_atom|phi> (log., in eV)  <phi|h_atom|phi> (rad., in eV)
           1        1                 -6.5683835025                 -6.5684759159
           1        2                 13.3711789951                 13.3708738703
           1        3                 23.6590910787                 23.6532055418
           1        4                 16.2963827186                 16.1870710655 ***
           1        5                 28.7627214838                 28.7627215090
           1        6                 59.5965249172                 59.5965950857
           1        7                 60.2220506392                 60.2220503827
           2        8               -515.4964576505               -515.4964530710
           2        9                 15.3030791347                 15.3030722972
           2       10                -21.7296094581                -21.7296135470
           2       11                 14.2969371730                 14.2969701621
           2       12                 21.0679693190                 21.0679697493
           2       13                 -2.3833606469                 -2.3833613176
           2       14                 13.7067136422                 13.7066766629
           2       15                 45.8013116808                 45.8013116965
           2       16                 52.2309815402                 52.2309831494
           2       17                 85.4120732416                 85.4120732763
           2       18                142.1019167745                142.1019167817
 * Note: Onsite integrals marked "***" above are less accurate than
 * onsite_accuracy_threshold =    0.03000 eV. Usually, this is harmless.
 * When in doubt, tighten the "radial" and/or "radial_multiplier" flags to check.

  Preparing densities etc. for the partition functions (integrals / Hartree potential).

  Preparations completed.
  max(cpu_time)          :      0.174 s.
  Wall clock time (cpu1) :      0.468 s.
------------------------------------------------------------

------------------------------------------------------------
          Begin self-consistency loop: Initialization.

          Date     :  20150727, Time     :  125750.819
------------------------------------------------------------

  Initializing index lists of integration centers etc. from given atomic structure:
  | Number of centers in hartree potential         :        16
  | Number of centers in hartree multipole         :        16
  | Number of centers in electron density summation:        16
  | Number of centers in basis integrals           :        16
  | Number of centers in integrals                 :        16
  Partitioning the integration grid into batches with parallel hashing+maxmin method.
  | Number of batches:     2086
  | Maximal batch size:     200
  | Minimal batch size:      49
  | Average batch size:      99.858
  | Standard deviation of batch sizes:      28.690

  Integration load balanced across     8 MPI tasks.
  Work distribution over tasks is as follows:
  Task     0 has      26035 integration points.
  Task     1 has      26012 integration points.
  Task     2 has      26095 integration points.
  Task     3 has      25990 integration points.
  Task     4 has      26011 integration points.
  Task     5 has      26065 integration points.
  Task     6 has      26065 integration points.
  Task     7 has      26031 integration points.
  Initializing partition tables, free-atom densities, potentials, etc. across the integration grid (initialize_grid_storage).
  | Net number of integration points:   208304
  | of which are non-zero points    :   207745
  Obtaining max. number of non-zero basis functions in each batch (get_n_compute_maxes).
  | Maximal number of non-zero basis functions:      357 in task     0
  | Maximal number of non-zero basis functions:      357 in task     1
  | Maximal number of non-zero basis functions:      357 in task     2
  | Maximal number of non-zero basis functions:      357 in task     3
  | Maximal number of non-zero basis functions:      357 in task     4
  | Maximal number of non-zero basis functions:      356 in task     5
  | Maximal number of non-zero basis functions:      356 in task     6
  | Maximal number of non-zero basis functions:      357 in task     7
  Integrating Hamiltonian matrix: batch-based integration.
  Time summed over all CPUs for integration: real work        8.079 s, elapsed        8.184 s
  Integrating overlap matrix.
  Time summed over all CPUs for integration: real work        4.340 s, elapsed        4.385 s

  Updating Kohn-Sham eigenvalues, eigenvectors, occupation numbers, and Fermi level.
  Solving generalized eigenproblem
  Updating Kohn-Sham eigenvalues and eigenfunctions.
  Transforming overlap matrix and checking for singularities.
  Overlap matrix is nonsingular:
  | Lowest eigenvalue:  0.280567E-03
  Solving real generalised eigenvalue problem by standard LAPACK (fast)
  Determining occupation numbers for Kohn-Sham eigenstates.
  | Chemical potential (Fermi level) in eV                 : -.29333341E+01
  | Error in electron count due to remaining E_F inaccuracy: 0.44204995E-09
  | Maximum occupation number of highest empty state:  0.00E+00

  Writing Kohn-Sham eigenvalues.

  State    Occupation    Eigenvalue [Ha]    Eigenvalue [eV]
      1       2.00000         -19.064922         -518.78293
      2       2.00000         -19.059401         -518.63268
      3       2.00000         -19.044622         -518.23052
      4       2.00000         -19.042617         -518.17597
      5       2.00000         -19.042587         -518.17516
      6       2.00000          -1.122419          -30.54257
      7       2.00000          -1.111510          -30.24571
      8       2.00000          -1.092093          -29.71737
      9       2.00000          -1.084082          -29.49937
     10       2.00000          -1.081649          -29.43317
     11       2.00000          -0.651909          -17.73934
     12       2.00000          -0.639319          -17.39675
     13       2.00000          -0.623336          -16.96185
     14       2.00000          -0.609269          -16.57906
     15       2.00000          -0.606608          -16.50663
     16       2.00000          -0.602461          -16.39380
     17       2.00000          -0.523287          -14.23937
     18       2.00000          -0.516904          -14.06568
     19       2.00000          -0.504593          -13.73067
     20       2.00000          -0.497350          -13.53357
     21       2.00000          -0.485970          -13.22390
     22       2.00000          -0.448551          -12.20570
     23       2.00000          -0.435988          -11.86383
     24       2.00000          -0.433069          -11.78441
     25       2.00000          -0.429388          -11.68425
     26       1.00000          -0.107798           -2.93333
     27       0.00000          -0.077769           -2.11620
     28       0.00000          -0.064812           -1.76362
     29       0.00000          -0.045609           -1.24107
     30       0.00000          -0.042796           -1.16454
     31       0.00000          -0.026967           -0.73381
     32       0.00000           0.003582            0.09746
     33       0.00000           0.031093            0.84608
     34       0.00000           0.032662            0.88879
     35       0.00000           0.043071            1.17202
     36       0.00000           0.048468            1.31887
     37       0.00000           0.062195            1.69242
     38       0.00000           0.076510            2.08194
     39       0.00000           0.083915            2.28344
     40       0.00000           0.088935            2.42004
     41       0.00000           0.092838            2.52626
     42       0.00000           0.100752            2.74160
     43       0.00000           0.104659            2.84792
     44       0.00000           0.108564            2.95419
     45       0.00000           0.123485            3.36019
     46       0.00000           0.130530            3.55189
     47       0.00000           0.138220            3.76117
     48       0.00000           0.148415            4.03857
     49       0.00000           0.154897            4.21497
     50       0.00000           0.161570            4.39656
     51       0.00000           0.169907            4.62342
     52       0.00000           0.175769            4.78292
     53       0.00000           0.213477            5.80902
     54       0.00000           0.218180            5.93698
     55       0.00000           0.229314            6.23996
     56       0.00000           0.231450            6.29807
     57       0.00000           0.250956            6.82886
     58       0.00000           0.264838            7.20661
     59       0.00000           0.273904            7.45330
     60       0.00000           0.298963            8.13520
     61       0.00000           0.307660            8.37184
     62       0.00000           0.330964            9.00599
     63       0.00000           0.343918            9.35847
     64       0.00000           0.350846            9.54700
     65       0.00000           0.359580            9.78466
     66       0.00000           0.367518           10.00067
     67       0.00000           0.376048           10.23280
     68       0.00000           0.383145           10.42592
     69       0.00000           0.389120           10.58850
     70       0.00000           0.411384           11.19434
     71       0.00000           0.420780           11.45002
     72       0.00000           0.436139           11.86795
     73       0.00000           0.447221           12.16949
     74       0.00000           0.459741           12.51020
     75       0.00000           0.464724           12.64580
     76       0.00000           0.487124           13.25533
     77       0.00000           0.499680           13.59698
     78       0.00000           0.511586           13.92096
     79       0.00000           0.527134           14.34405
     80       0.00000           0.559102           15.21394
     81       0.00000           0.561849           15.28870
     82       0.00000           0.583551           15.87924
     83       0.00000           0.608978           16.57113
     84       0.00000           0.628124           17.09213
     85       0.00000           0.645213           17.55715
     86       0.00000           0.672342           18.29536
     87       0.00000           0.690343           18.78520
     88       0.00000           0.747424           20.33844
     89       0.00000           0.755678           20.56305
     90       0.00000           0.776313           21.12454

  Highest occupied state (VBM) at     -2.93333405 eV
  | Occupation number:      1.00000000

  Lowest unoccupied state (CBM) at    -2.11619972 eV
  | Occupation number:      0.00000000

  Overall HOMO-LUMO gap:      0.81713433 eV.
  Calculating total energy contributions from superposition of free atom densities.

  Total energy components:
  | Sum of eigenvalues            :        -217.61560366 Ha       -5921.62186444 eV
  | XC energy correction          :         -45.92670098 Ha       -1249.72911911 eV
  | XC potential correction       :          58.69534897 Ha        1597.18170918 eV
  | Free-atom electrostatic energy:        -178.68917656 Ha       -4862.37988928 eV
  | Hartree energy correction     :           0.00000000 Ha           0.00000000 eV
  | van der Waals energy corr.    :           0.00000000 Ha           0.00000000 eV
  | Entropy correction            :          -0.00010367 Ha          -0.00282095 eV
  | ---------------------------
  | Total energy                  :        -383.53613223 Ha      -10436.54916365 eV
  | Total energy, T -> 0          :        -383.53623589 Ha      -10436.55198460 eV  <-- do not rely on this value for anything but (periodic) metals
  | Electronic free energy        :        -383.53633956 Ha      -10436.55480555 eV

  Derived energy quantities:
  | Kinetic energy                :         379.83339597 Ha       10335.79258373 eV
  | Electrostatic energy          :        -717.44282722 Ha      -19522.61262827 eV
  | Energy correction for multipole
  | error in Hartree potential    :           0.00000000 Ha           0.00000000 eV
  | Sum of eigenvalues per atom                           :        -370.10136653 eV
  | Total energy (T->0) per atom                          :        -652.28449904 eV  <-- do not rely on this value for anything but (periodic) metals
  | Electronic free energy per atom                       :        -652.28467535 eV
  Initialize hartree_potential_storage
  Max. number of atoms included in rho_multipole:           16

  End scf initialization - timings             :  max(cpu_time)    wall_clock(cpu1)
  | Time for scf. initialization               :        2.191 s           2.190 s
  | Boundary condition initialization          :        0.000 s           0.001 s
  | Integration                                :        1.576 s           1.575 s
  | Solution of K.-S. eqns.                    :        0.213 s           0.214 s
  | Grid partitioning                          :        0.165 s           0.164 s
  | Preloading free-atom quantities on grid    :        0.014 s           0.013 s
  | Free-atom superposition energy             :        0.073 s           0.073 s
  | Total energy evaluation                    :        0.000 s           0.000 s
------------------------------------------------------------

------------------------------------------------------------
          Begin self-consistency iteration #    1

  Date     :  20150727, Time     :  125753.010
------------------------------------------------------------
  Evaluating new KS density.
  Integration grid: deviation in total charge (<rho> - N_e) =   4.420642E-10
  Pulay mixing of updated and previous charge densities.

  Evaluating partitioned Hartree potential by multipole expansion.
  | Analytical far-field extrapolation by fixed multipoles:
  | Hartree multipole sum: apparent total charge =  -0.947663E-06
  Summing up the Hartree potential.
  Time summed over all CPUs for potential: real work        2.895 s, elapsed        2.905 s
  | RMS charge density error from multipole expansion :   0.165762E-02

  Integrating Hamiltonian matrix: batch-based integration.
  Time summed over all CPUs for integration: real work        8.065 s, elapsed        8.173 s

  Updating Kohn-Sham eigenvalues, eigenvectors, occupation numbers, and Fermi level.
  Solving generalized eigenproblem
  Updating Kohn-Sham eigenvalues and eigenfunctions.
  Solving real generalised eigenvalue problem by standard LAPACK (fast)
  Determining occupation numbers for Kohn-Sham eigenstates.
  | Chemical potential (Fermi level) in eV                 : -.27209840E+01
  | Error in electron count due to remaining E_F inaccuracy: -.10437873E-10
  | Maximum occupation number of highest empty state:  0.00E+00

  Writing Kohn-Sham eigenvalues.

  State    Occupation    Eigenvalue [Ha]    Eigenvalue [eV]
      1       2.00000         -19.012096         -517.34546
      2       2.00000         -18.989183         -516.72196
      3       2.00000         -18.974201         -516.31429
      4       2.00000         -18.965813         -516.08602
      5       2.00000         -18.960050         -515.92921
      6       2.00000          -1.097277          -29.85842
      7       2.00000          -1.078484          -29.34703
      8       2.00000          -1.050425          -28.58352
      9       2.00000          -1.048499          -28.53111
     10       2.00000          -1.042103          -28.35708
     11       2.00000          -0.623691          -16.97150
     12       2.00000          -0.617011          -16.78971
     13       2.00000          -0.585435          -15.93050
     14       2.00000          -0.582316          -15.84561
     15       2.00000          -0.579319          -15.76406
     16       2.00000          -0.572731          -15.58482
     17       2.00000          -0.491721          -13.38041
     18       2.00000          -0.480224          -13.06757
     19       2.00000          -0.469442          -12.77417
     20       2.00000          -0.458482          -12.47594
     21       2.00000          -0.454247          -12.36070
     22       2.00000          -0.413580          -11.25408
     23       2.00000          -0.401490          -10.92510
     24       2.00000          -0.391581          -10.65547
     25       2.00000          -0.384044          -10.45037
     26       1.00000          -0.099994           -2.72098
     27       0.00000          -0.069869           -1.90123
     28       0.00000          -0.056538           -1.53847
     29       0.00000          -0.038787           -1.05544
     30       0.00000          -0.034391           -0.93583
     31       0.00000          -0.020162           -0.54864
     32       0.00000           0.009717            0.26441
     33       0.00000           0.040668            1.10664
     34       0.00000           0.044306            1.20564
     35       0.00000           0.049370            1.34343
     36       0.00000           0.058178            1.58310
     37       0.00000           0.067034            1.82410
     38       0.00000           0.082590            2.24739
     39       0.00000           0.090492            2.46240
     40       0.00000           0.099858            2.71729
     41       0.00000           0.100858            2.74450
     42       0.00000           0.110109            2.99621
     43       0.00000           0.115012            3.12962
     44       0.00000           0.119175            3.24291
     45       0.00000           0.133709            3.63841
     46       0.00000           0.139480            3.79546
     47       0.00000           0.149329            4.06344
     48       0.00000           0.156350            4.25449
     49       0.00000           0.161177            4.38585
     50       0.00000           0.172091            4.68282
     51       0.00000           0.179107            4.87374
     52       0.00000           0.184682            5.02544
     53       0.00000           0.222308            6.04930
     54       0.00000           0.225255            6.12949
     55       0.00000           0.236091            6.42436
     56       0.00000           0.239213            6.50933
     57       0.00000           0.258130            7.02409
     58       0.00000           0.271281            7.38193
     59       0.00000           0.282747            7.69394
     60       0.00000           0.305092            8.30199
     61       0.00000           0.313593            8.53330
     62       0.00000           0.338999            9.22464
     63       0.00000           0.352767            9.59929
     64       0.00000           0.357919            9.73948
     65       0.00000           0.369750           10.06141
     66       0.00000           0.375105           10.20712
     67       0.00000           0.383324           10.43078
     68       0.00000           0.390778           10.63362
     69       0.00000           0.396483           10.78886
     70       0.00000           0.417386           11.35764
     71       0.00000           0.429225           11.67982
     72       0.00000           0.444082           12.08408
     73       0.00000           0.456389           12.41897
     74       0.00000           0.468804           12.75681
     75       0.00000           0.472836           12.86653
     76       0.00000           0.497941           13.54966
     77       0.00000           0.511328           13.91393
     78       0.00000           0.521083           14.17940
     79       0.00000           0.538345           14.64911
     80       0.00000           0.569649           15.50093
     81       0.00000           0.570898           15.53493
     82       0.00000           0.593657           16.15423
     83       0.00000           0.621191           16.90347
     84       0.00000           0.639924           17.41322
     85       0.00000           0.653179           17.77390
     86       0.00000           0.682757           18.57876
     87       0.00000           0.703030           19.13042
     88       0.00000           0.756012           20.57213
     89       0.00000           0.768421           20.90981
     90       0.00000           0.787399           21.42620

  Highest occupied state (VBM) at    -10.45037257 eV
  | Occupation number:      2.00000000

  Lowest unoccupied state (CBM) at    -2.72098405 eV
  | Occupation number:      1.00000000

  Overall HOMO-LUMO gap:      7.72938852 eV.

  Total energy components:
  | Sum of eigenvalues            :        -215.54688668 Ha       -5865.32921114 eV
  | XC energy correction          :         -46.14819725 Ha       -1255.75633945 eV
  | XC potential correction       :          58.98462277 Ha        1605.05324988 eV
  | Free-atom electrostatic energy:        -178.68917656 Ha       -4862.37988928 eV
  | Hartree energy correction     :          -2.01440108 Ha         -54.81464237 eV
  | van der Waals energy corr.    :           0.00000000 Ha           0.00000000 eV
  | Entropy correction            :          -0.00010367 Ha          -0.00282095 eV
  | ---------------------------
  | Total energy                  :        -383.41403880 Ha      -10433.22683236 eV
  | Total energy, T -> 0          :        -383.41414246 Ha      -10433.22965331 eV  <-- do not rely on this value for anything but (periodic) metals
  | Electronic free energy        :        -383.41424613 Ha      -10433.23247426 eV

  Derived energy quantities:
  | Kinetic energy                :         381.17818469 Ha       10372.38614652 eV
  | Electrostatic energy          :        -718.44402623 Ha      -19549.85663943 eV
  | Energy correction for multipole
  | error in Hartree potential    :           0.00043014 Ha           0.01170460 eV
  | Sum of eigenvalues per atom                           :        -366.58307570 eV
  | Total energy (T->0) per atom                          :        -652.07685333 eV  <-- do not rely on this value for anything but (periodic) metals
  | Electronic free energy per atom                       :        -652.07702964 eV

  Self-consistency convergence accuracy:
  | Change of charge density      : 0.6339E+00
  | Change of sum of eigenvalues  : 0.5629E+02 eV
  | Change of total energy        : 0.3322E+01 eV

  End self-consistency iteration #     1       :  max(cpu_time)    wall_clock(cpu1)
  | Time for this iteration                    :        2.127 s           2.127 s
  | Charge density update                      :        0.673 s           0.673 s
  | Density mixing                             :        0.003 s           0.003 s
  | Hartree multipole update                   :        0.006 s           0.005 s
  | Hartree multipole summation                :        0.364 s           0.364 s
  | Integration                                :        1.023 s           1.023 s
  | Solution of K.-S. eqns.                    :        0.057 s           0.057 s
  | Total energy evaluation                    :        0.000 s           0.001 s
------------------------------------------------------------

------------------------------------------------------------
          Begin self-consistency iteration #    2

  Date     :  20150727, Time     :  125755.137
------------------------------------------------------------
  Evaluating new KS density.
  Integration grid: deviation in total charge (<rho> - N_e) =  -1.043077E-11
  Pulay mixing of updated and previous charge densities.

  Evaluating partitioned Hartree potential by multipole expansion.
  | Analytical far-field extrapolation by fixed multipoles:
  | Hartree multipole sum: apparent total charge =  -0.265056E-05
  Summing up the Hartree potential.
  Time summed over all CPUs for potential: real work        2.894 s, elapsed        2.905 s
  | RMS charge density error from multipole expansion :   0.670900E-02

  Integrating Hamiltonian matrix: batch-based integration.
  Time summed over all CPUs for integration: real work        8.053 s, elapsed        8.169 s

  Updating Kohn-Sham eigenvalues, eigenvectors, occupation numbers, and Fermi level.
  Solving generalized eigenproblem
  Updating Kohn-Sham eigenvalues and eigenfunctions.
  Solving real generalised eigenvalue problem by standard LAPACK (fast)
  Determining occupation numbers for Kohn-Sham eigenstates.
  | Chemical potential (Fermi level) in eV                 : -.22315417E+01
  | Error in electron count due to remaining E_F inaccuracy: -.42632564E-12
  | Maximum occupation number of highest empty state:  0.00E+00

  Highest occupied state (VBM) at     -7.42793239 eV
  | Occupation number:      2.00000000

  Lowest unoccupied state (CBM) at    -2.23154171 eV
  | Occupation number:      1.00000000

  Overall HOMO-LUMO gap:      5.19639068 eV.

  Total energy components:
  | Sum of eigenvalues            :        -210.61551591 Ha       -5731.13978520 eV
  | XC energy correction          :         -46.70279050 Ha       -1270.84758954 eV
  | XC potential correction       :          59.70741682 Ha        1624.72147660 eV
  | Free-atom electrostatic energy:        -178.68917656 Ha       -4862.37988928 eV
  | Hartree energy correction     :          -6.97564755 Ha        -189.81702773 eV
  | van der Waals energy corr.    :           0.00000000 Ha           0.00000000 eV
  | Entropy correction            :          -0.00010367 Ha          -0.00282095 eV
  | ---------------------------
  | Total energy                  :        -383.27571371 Ha      -10429.46281515 eV
  | Total energy, T -> 0          :        -383.27581737 Ha      -10429.46563610 eV  <-- do not rely on this value for anything but (periodic) metals
  | Electronic free energy        :        -383.27592104 Ha      -10429.46845705 eV

  Derived energy quantities:
  | Kinetic energy                :         383.95572983 Ha       10447.96699542 eV
  | Electrostatic energy          :        -720.52865304 Ha      -19606.58222103 eV
  | Energy correction for multipole
  | error in Hartree potential    :           0.00086249 Ha           0.02346952 eV
  | Sum of eigenvalues per atom                           :        -358.19623657 eV
  | Total energy (T->0) per atom                          :        -651.84160226 eV  <-- do not rely on this value for anything but (periodic) metals
  | Electronic free energy per atom                       :        -651.84177857 eV

  Self-consistency convergence accuracy:
  | Change of charge density      : 0.4812E+00
  | Change of sum of eigenvalues  : 0.1342E+03 eV
  | Change of total energy        : 0.3764E+01 eV

  End self-consistency iteration #     2       :  max(cpu_time)    wall_clock(cpu1)
  | Time for this iteration                    :        2.124 s           2.125 s
  | Charge density update                      :        0.670 s           0.670 s
  | Density mixing                             :        0.005 s           0.006 s
  | Hartree multipole update                   :        0.005 s           0.005 s
  | Hartree multipole summation                :        0.364 s           0.364 s
  | Integration                                :        1.022 s           1.023 s
  | Solution of K.-S. eqns.                    :        0.057 s           0.056 s
  | Total energy evaluation                    :        0.000 s           0.001 s
------------------------------------------------------------

------------------------------------------------------------
          Begin self-consistency iteration #    3

  Date     :  20150727, Time     :  125757.262
------------------------------------------------------------
  Evaluating new KS density.
  Integration grid: deviation in total charge (<rho> - N_e) =  -3.979039E-13
  Pulay mixing of updated and previous charge densities.

  Evaluating partitioned Hartree potential by multipole expansion.
  | Analytical far-field extrapolation by fixed multipoles:
  | Hartree multipole sum: apparent total charge =  -0.151547E-05
  Summing up the Hartree potential.
  Time summed over all CPUs for potential: real work        2.894 s, elapsed        2.905 s
  | RMS charge density error from multipole expansion :   0.138698E-01

  Integrating Hamiltonian matrix: batch-based integration.
  Time summed over all CPUs for integration: real work        8.045 s, elapsed        8.140 s

  Updating Kohn-Sham eigenvalues, eigenvectors, occupation numbers, and Fermi level.
  Solving generalized eigenproblem
  Updating Kohn-Sham eigenvalues and eigenfunctions.
  Solving real generalised eigenvalue problem by standard LAPACK (fast)
  Determining occupation numbers for Kohn-Sham eigenstates.
  | Chemical potential (Fermi level) in eV                 : -.22816101E+01
  | Error in electron count due to remaining E_F inaccuracy: -.93129771E-08
  | Maximum occupation number of highest empty state:  0.00E+00

  Highest occupied state (VBM) at     -7.01262504 eV
  | Occupation number:      2.00000000

  Lowest unoccupied state (CBM) at    -2.28161013 eV
  | Occupation number:      0.99999999

  Overall HOMO-LUMO gap:      4.73101491 eV.

  Total energy components:
  | Sum of eigenvalues            :        -210.91120456 Ha       -5739.18588270 eV
  | XC energy correction          :         -46.69461790 Ha       -1270.62520183 eV
  | XC potential correction       :          59.68808285 Ha        1624.19537240 eV
  | Free-atom electrostatic energy:        -178.68917656 Ha       -4862.37988928 eV
  | Hartree energy correction     :          -6.66611879 Ha        -181.39432154 eV
  | van der Waals energy corr.    :           0.00000000 Ha           0.00000000 eV
  | Entropy correction            :          -0.00010367 Ha          -0.00282095 eV
  | ---------------------------
  | Total energy                  :        -383.27303497 Ha      -10429.38992295 eV
  | Total energy, T -> 0          :        -383.27313863 Ha      -10429.39274390 eV  <-- do not rely on this value for anything but (periodic) metals
  | Electronic free energy        :        -383.27324230 Ha      -10429.39556484 eV

  Derived energy quantities:
  | Kinetic energy                :         382.11747025 Ha       10397.94540705 eV
  | Electrostatic energy          :        -718.69588731 Ha      -19556.71012817 eV
  | Energy correction for multipole
  | error in Hartree potential    :          -0.00274238 Ha          -0.07462406 eV
  | Sum of eigenvalues per atom                           :        -358.69911767 eV
  | Total energy (T->0) per atom                          :        -651.83704649 eV  <-- do not rely on this value for anything but (periodic) metals
  | Electronic free energy per atom                       :        -651.83722280 eV

  Self-consistency convergence accuracy:
  | Change of charge density      : 0.2363E+00
  | Change of sum of eigenvalues  : -.8046E+01 eV
  | Change of total energy        : 0.7289E-01 eV

  End self-consistency iteration #     3       :  max(cpu_time)    wall_clock(cpu1)
  | Time for this iteration                    :        2.117 s           2.117 s
  | Charge density update                      :        0.664 s           0.664 s
  | Density mixing                             :        0.007 s           0.007 s
  | Hartree multipole update                   :        0.005 s           0.005 s
  | Hartree multipole summation                :        0.364 s           0.364 s
  | Integration                                :        1.020 s           1.019 s
  | Solution of K.-S. eqns.                    :        0.056 s           0.057 s
  | Total energy evaluation                    :        0.001 s           0.001 s
------------------------------------------------------------

------------------------------------------------------------
          Begin self-consistency iteration #    4

  Date     :  20150727, Time     :  125759.379
------------------------------------------------------------
  Evaluating new KS density.
  Integration grid: deviation in total charge (<rho> - N_e) =  -9.312949E-09
  Pulay mixing of updated and previous charge densities.

  Evaluating partitioned Hartree potential by multipole expansion.
  | Analytical far-field extrapolation by fixed multipoles:
  | Hartree multipole sum: apparent total charge =  -0.158674E-05
  Summing up the Hartree potential.
  Time summed over all CPUs for potential: real work        2.894 s, elapsed        2.905 s
  | RMS charge density error from multipole expansion :   0.175103E-01

  Integrating Hamiltonian matrix: batch-based integration.
  Time summed over all CPUs for integration: real work        8.050 s, elapsed        8.139 s

  Updating Kohn-Sham eigenvalues, eigenvectors, occupation numbers, and Fermi level.
  Solving generalized eigenproblem
  Updating Kohn-Sham eigenvalues and eigenfunctions.
  Solving real generalised eigenvalue problem by standard LAPACK (fast)
  Determining occupation numbers for Kohn-Sham eigenstates.
  | Chemical potential (Fermi level) in eV                 : -.21562546E+01
  | Error in electron count due to remaining E_F inaccuracy: 0.58548721E-10
  | Maximum occupation number of highest empty state:  0.00E+00

  Highest occupied state (VBM) at     -2.15625457 eV
  | Occupation number:      1.00000000

  Lowest unoccupied state (CBM) at    -1.34882901 eV
  | Occupation number:      0.00000000

  Overall HOMO-LUMO gap:      0.80742557 eV.

  Total energy components:
  | Sum of eigenvalues            :        -209.73052260 Ha       -5707.05789196 eV
  | XC energy correction          :         -46.85224353 Ha       -1274.91441329 eV
  | XC potential correction       :          59.89095514 Ha        1629.71580846 eV
  | Free-atom electrostatic energy:        -178.68917656 Ha       -4862.37988928 eV
  | Hartree energy correction     :          -7.88614881 Ha        -214.59302745 eV
  | van der Waals energy corr.    :           0.00000000 Ha           0.00000000 eV
  | Entropy correction            :          -0.00010367 Ha          -0.00282095 eV
  | ---------------------------
  | Total energy                  :        -383.26713635 Ha      -10429.22941351 eV
  | Total energy, T -> 0          :        -383.26724002 Ha      -10429.23223446 eV  <-- do not rely on this value for anything but (periodic) metals
  | Electronic free energy        :        -383.26734369 Ha      -10429.23505541 eV

  Derived energy quantities:
  | Kinetic energy                :         382.22416750 Ha       10400.84878695 eV
  | Electrostatic energy          :        -718.63906032 Ha      -19555.16378718 eV
  | Energy correction for multipole
  | error in Hartree potential    :          -0.00385250 Ha          -0.10483193 eV
  | Sum of eigenvalues per atom                           :        -356.69111825 eV
  | Total energy (T->0) per atom                          :        -651.82701465 eV  <-- do not rely on this value for anything but (periodic) metals
  | Electronic free energy per atom                       :        -651.82719096 eV

  Self-consistency convergence accuracy:
  | Change of charge density      : 0.1078E+00
  | Change of sum of eigenvalues  : 0.3213E+02 eV
  | Change of total energy        : 0.1605E+00 eV

  End self-consistency iteration #     4       :  max(cpu_time)    wall_clock(cpu1)
  | Time for this iteration                    :        2.117 s           2.116 s
  | Charge density update                      :        0.662 s           0.662 s
  | Density mixing                             :        0.009 s           0.009 s
  | Hartree multipole update                   :        0.005 s           0.005 s
  | Hartree multipole summation                :        0.364 s           0.364 s
  | Integration                                :        1.019 s           1.019 s
  | Solution of K.-S. eqns.                    :        0.057 s           0.057 s
  | Total energy evaluation                    :        0.001 s           0.000 s
------------------------------------------------------------

------------------------------------------------------------
          Begin self-consistency iteration #    5

  Date     :  20150727, Time     :  125801.495
------------------------------------------------------------
  Evaluating new KS density.
  Integration grid: deviation in total charge (<rho> - N_e) =   5.860556E-11
  Pulay mixing of updated and previous charge densities.

  Evaluating partitioned Hartree potential by multipole expansion.
  | Analytical far-field extrapolation by fixed multipoles:
  | Hartree multipole sum: apparent total charge =  -0.157056E-05
  Summing up the Hartree potential.
  Time summed over all CPUs for potential: real work        2.903 s, elapsed        2.930 s
  | RMS charge density error from multipole expansion :   0.178241E-01

  Integrating Hamiltonian matrix: batch-based integration.
  Time summed over all CPUs for integration: real work        8.039 s, elapsed        8.129 s

  Updating Kohn-Sham eigenvalues, eigenvectors, occupation numbers, and Fermi level.
  Solving generalized eigenproblem
  Updating Kohn-Sham eigenvalues and eigenfunctions.
  Solving real generalised eigenvalue problem by standard LAPACK (fast)
  Determining occupation numbers for Kohn-Sham eigenstates.
  | Chemical potential (Fermi level) in eV                 : -.21213864E+01
  | Error in electron count due to remaining E_F inaccuracy: 0.13642421E-11
  | Maximum occupation number of highest empty state:  0.00E+00

  Highest occupied state (VBM) at     -2.12138639 eV
  | Occupation number:      1.00000000

  Lowest unoccupied state (CBM) at    -1.34756517 eV
  | Occupation number:      0.00000000

  Overall HOMO-LUMO gap:      0.77382122 eV.

  Total energy components:
  | Sum of eigenvalues            :        -209.65910765 Ha       -5705.11459212 eV
  | XC energy correction          :         -46.86306924 Ha       -1275.20899587 eV
  | XC potential correction       :          59.90475335 Ha        1630.09127665 eV
  | Free-atom electrostatic energy:        -178.68917656 Ha       -4862.37988928 eV
  | Hartree energy correction     :          -7.96044497 Ha        -216.61472898 eV
  | van der Waals energy corr.    :           0.00000000 Ha           0.00000000 eV
  | Entropy correction            :          -0.00010367 Ha          -0.00282095 eV
  | ---------------------------
  | Total energy                  :        -383.26704507 Ha      -10429.22692960 eV
  | Total energy, T -> 0          :        -383.26714874 Ha      -10429.22975055 eV  <-- do not rely on this value for anything but (periodic) metals
  | Electronic free energy        :        -383.26725241 Ha      -10429.23257150 eV

  Derived energy quantities:
  | Kinetic energy                :         382.26691042 Ha       10402.01188097 eV
  | Electrostatic energy          :        -718.67088625 Ha      -19556.02981470 eV
  | Energy correction for multipole
  | error in Hartree potential    :          -0.00396242 Ha          -0.10782285 eV
  | Sum of eigenvalues per atom                           :        -356.56966201 eV
  | Total energy (T->0) per atom                          :        -651.82685941 eV  <-- do not rely on this value for anything but (periodic) metals
  | Electronic free energy per atom                       :        -651.82703572 eV

  Self-consistency convergence accuracy:
  | Change of charge density      : 0.1664E-01
  | Change of sum of eigenvalues  : 0.1943E+01 eV
  | Change of total energy        : 0.2484E-02 eV

  End self-consistency iteration #     5       :  max(cpu_time)    wall_clock(cpu1)
  | Time for this iteration                    :        2.131 s           2.131 s
  | Charge density update                      :        0.670 s           0.671 s
  | Density mixing                             :        0.010 s           0.013 s
  | Hartree multipole update                   :        0.005 s           0.005 s
  | Hartree multipole summation                :        0.367 s           0.367 s
  | Integration                                :        1.018 s           1.017 s
  | Solution of K.-S. eqns.                    :        0.058 s           0.058 s
  | Total energy evaluation                    :        0.000 s           0.000 s
------------------------------------------------------------

------------------------------------------------------------
          Begin self-consistency iteration #    6

  Date     :  20150727, Time     :  125803.627
------------------------------------------------------------
  Evaluating new KS density.
  Integration grid: deviation in total charge (<rho> - N_e) =   1.364242E-12
  Pulay mixing of updated and previous charge densities.

  Evaluating partitioned Hartree potential by multipole expansion.
  | Analytical far-field extrapolation by fixed multipoles:
  | Hartree multipole sum: apparent total charge =  -0.150526E-05
  Summing up the Hartree potential.
  Time summed over all CPUs for potential: real work        2.894 s, elapsed        2.905 s
  | RMS charge density error from multipole expansion :   0.179647E-01

  Integrating Hamiltonian matrix: batch-based integration.
  Time summed over all CPUs for integration: real work        8.040 s, elapsed        8.130 s

  Updating Kohn-Sham eigenvalues, eigenvectors, occupation numbers, and Fermi level.
  Solving generalized eigenproblem
  Updating Kohn-Sham eigenvalues and eigenfunctions.
  Solving real generalised eigenvalue problem by standard LAPACK (fast)
  Determining occupation numbers for Kohn-Sham eigenstates.
  | Chemical potential (Fermi level) in eV                 : -.21235354E+01
  | Error in electron count due to remaining E_F inaccuracy: 0.00000000E+00
  | Maximum occupation number of highest empty state:  0.00E+00

  Highest occupied state (VBM) at     -2.12353539 eV
  | Occupation number:      1.00000000

  Lowest unoccupied state (CBM) at    -2.12353539 eV
  | Occupation number:      1.00000000

  Overall HOMO-LUMO gap:      0.00000000 eV.

  Total energy components:
  | Sum of eigenvalues            :        -209.71627961 Ha       -5706.67032029 eV
  | XC energy correction          :         -46.85815926 Ha       -1275.07538857 eV
  | XC potential correction       :          59.89799750 Ha        1629.90744072 eV
  | Free-atom electrostatic energy:        -178.68917656 Ha       -4862.37988928 eV
  | Hartree energy correction     :          -7.90139129 Ha        -215.00779655 eV
  | van der Waals energy corr.    :           0.00000000 Ha           0.00000000 eV
  | Entropy correction            :          -0.00010367 Ha          -0.00282095 eV
  | ---------------------------
  | Total energy                  :        -383.26700922 Ha      -10429.22595397 eV
  | Total energy, T -> 0          :        -383.26711289 Ha      -10429.22877492 eV  <-- do not rely on this value for anything but (periodic) metals
  | Electronic free energy        :        -383.26721655 Ha      -10429.23159587 eV

  Derived energy quantities:
  | Kinetic energy                :         382.25563988 Ha       10401.70519406 eV
  | Electrostatic energy          :        -718.66448984 Ha      -19555.85575946 eV
  | Energy correction for multipole
  | error in Hartree potential    :          -0.00407959 Ha          -0.11101127 eV
  | Sum of eigenvalues per atom                           :        -356.66689502 eV
  | Total energy (T->0) per atom                          :        -651.82679843 eV  <-- do not rely on this value for anything but (periodic) metals
  | Electronic free energy per atom                       :        -651.82697474 eV

  Self-consistency convergence accuracy:
  | Change of charge density      : 0.1072E-01
  | Change of sum of eigenvalues  : -.1556E+01 eV
  | Change of total energy        : 0.9756E-03 eV

  End self-consistency iteration #     6       :  max(cpu_time)    wall_clock(cpu1)
  | Time for this iteration                    :        2.120 s           2.119 s
  | Charge density update                      :        0.664 s           0.663 s
  | Density mixing                             :        0.012 s           0.012 s
  | Hartree multipole update                   :        0.005 s           0.005 s
  | Hartree multipole summation                :        0.364 s           0.364 s
  | Integration                                :        1.018 s           1.018 s
  | Solution of K.-S. eqns.                    :        0.056 s           0.056 s
  | Total energy evaluation                    :        0.000 s           0.000 s
------------------------------------------------------------

------------------------------------------------------------
          Begin self-consistency iteration #    7

  Date     :  20150727, Time     :  125805.746
------------------------------------------------------------
  Evaluating new KS density.
  Integration grid: deviation in total charge (<rho> - N_e) =   2.842171E-14
  Pulay mixing of updated and previous charge densities.

  Evaluating partitioned Hartree potential by multipole expansion.
  | Analytical far-field extrapolation by fixed multipoles:
  | Hartree multipole sum: apparent total charge =  -0.145406E-05
  Summing up the Hartree potential.
  Time summed over all CPUs for potential: real work        2.898 s, elapsed        2.926 s
  | RMS charge density error from multipole expansion :   0.180027E-01

  Integrating Hamiltonian matrix: batch-based integration.
  Time summed over all CPUs for integration: real work        8.041 s, elapsed        8.129 s

  Updating Kohn-Sham eigenvalues, eigenvectors, occupation numbers, and Fermi level.
  Solving generalized eigenproblem
  Updating Kohn-Sham eigenvalues and eigenfunctions.
  Solving real generalised eigenvalue problem by standard LAPACK (fast)
  Determining occupation numbers for Kohn-Sham eigenstates.
  | Chemical potential (Fermi level) in eV                 : -.21343813E+01
  | Error in electron count due to remaining E_F inaccuracy: -.28251179E-10
  | Maximum occupation number of highest empty state:  0.00E+00

  Highest occupied state (VBM) at     -6.22083110 eV
  | Occupation number:      2.00000000

  Lowest unoccupied state (CBM) at    -2.13438126 eV
  | Occupation number:      1.00000000

  Overall HOMO-LUMO gap:      4.08644984 eV.

  Total energy components:
  | Sum of eigenvalues            :        -209.76990771 Ha       -5708.12961516 eV
  | XC energy correction          :         -46.85329354 Ha       -1274.94298556 eV
  | XC potential correction       :          59.89135627 Ha        1629.72672377 eV
  | Free-atom electrostatic energy:        -178.68917656 Ha       -4862.37988928 eV
  | Hartree energy correction     :          -7.84595818 Ha        -213.49938493 eV
  | van der Waals energy corr.    :           0.00000000 Ha           0.00000000 eV
  | Entropy correction            :          -0.00010367 Ha          -0.00282095 eV
  | ---------------------------
  | Total energy                  :        -383.26697971 Ha      -10429.22515117 eV
  | Total energy, T -> 0          :        -383.26708338 Ha      -10429.22797211 eV  <-- do not rely on this value for anything but (periodic) metals
  | Electronic free energy        :        -383.26718705 Ha      -10429.23079306 eV

  Derived energy quantities:
  | Kinetic energy                :         382.28778020 Ha       10402.57977670 eV
  | Electrostatic energy          :        -718.70146638 Ha      -19556.86194231 eV
  | Energy correction for multipole
  | error in Hartree potential    :          -0.00415969 Ha          -0.11319102 eV
  | Sum of eigenvalues per atom                           :        -356.75810095 eV
  | Total energy (T->0) per atom                          :        -651.82674826 eV  <-- do not rely on this value for anything but (periodic) metals
  | Electronic free energy per atom                       :        -651.82692457 eV

  Self-consistency convergence accuracy:
  | Change of charge density      : 0.6916E-02
  | Change of sum of eigenvalues  : -.1459E+01 eV
  | Change of total energy        : 0.8028E-03 eV

  End self-consistency iteration #     7       :  max(cpu_time)    wall_clock(cpu1)
  | Time for this iteration                    :        2.123 s           2.123 s
  | Charge density update                      :        0.663 s           0.663 s
  | Density mixing                             :        0.013 s           0.013 s
  | Hartree multipole update                   :        0.005 s           0.005 s
  | Hartree multipole summation                :        0.367 s           0.367 s
  | Integration                                :        1.018 s           1.017 s
  | Solution of K.-S. eqns.                    :        0.056 s           0.057 s
  | Total energy evaluation                    :        0.000 s           0.000 s
------------------------------------------------------------

------------------------------------------------------------
          Begin self-consistency iteration #    8

  Date     :  20150727, Time     :  125807.869
------------------------------------------------------------
  Evaluating new KS density.
  Integration grid: deviation in total charge (<rho> - N_e) =  -2.818723E-11
  Pulay mixing of updated and previous charge densities.

  Evaluating partitioned Hartree potential by multipole expansion.
  | Analytical far-field extrapolation by fixed multipoles:
  | Hartree multipole sum: apparent total charge =  -0.139785E-05
  Summing up the Hartree potential.
  Time summed over all CPUs for potential: real work        2.893 s, elapsed        2.904 s
  | RMS charge density error from multipole expansion :   0.180592E-01

  Integrating Hamiltonian matrix: batch-based integration.
  Time summed over all CPUs for integration: real work        8.043 s, elapsed        8.136 s

  Updating Kohn-Sham eigenvalues, eigenvectors, occupation numbers, and Fermi level.
  Solving generalized eigenproblem
  Updating Kohn-Sham eigenvalues and eigenfunctions.
  Solving real generalised eigenvalue problem by standard LAPACK (fast)
  Determining occupation numbers for Kohn-Sham eigenstates.
  | Chemical potential (Fermi level) in eV                 : -.21377620E+01
  | Error in electron count due to remaining E_F inaccuracy: -.13563550E-09
  | Maximum occupation number of highest empty state:  0.00E+00

  Highest occupied state (VBM) at     -6.23973305 eV
  | Occupation number:      2.00000000

  Lowest unoccupied state (CBM) at    -2.13776203 eV
  | Occupation number:      1.00000000

  Overall HOMO-LUMO gap:      4.10197102 eV.

  Total energy components:
  | Sum of eigenvalues            :        -209.79803734 Ha       -5708.89506127 eV
  | XC energy correction          :         -46.85103573 Ha       -1274.88154754 eV
  | XC potential correction       :          59.88822720 Ha        1629.64157739 eV
  | Free-atom electrostatic energy:        -178.68917656 Ha       -4862.37988928 eV
  | Hartree energy correction     :          -7.81695533 Ha        -212.71017702 eV
  | van der Waals energy corr.    :           0.00000000 Ha           0.00000000 eV
  | Entropy correction            :          -0.00010367 Ha          -0.00282095 eV
  | ---------------------------
  | Total energy                  :        -383.26697775 Ha      -10429.22509772 eV
  | Total energy, T -> 0          :        -383.26708142 Ha      -10429.22791867 eV  <-- do not rely on this value for anything but (periodic) metals
  | Electronic free energy        :        -383.26718509 Ha      -10429.23073961 eV

  Derived energy quantities:
  | Kinetic energy                :         382.30015295 Ha       10402.91645630 eV
  | Electrostatic energy          :        -718.71609497 Ha      -19557.26000648 eV
  | Energy correction for multipole
  | error in Hartree potential    :          -0.00422320 Ha          -0.11491922 eV
  | Sum of eigenvalues per atom                           :        -356.80594133 eV
  | Total energy (T->0) per atom                          :        -651.82674492 eV  <-- do not rely on this value for anything but (periodic) metals
  | Electronic free energy per atom                       :        -651.82692123 eV

  Self-consistency convergence accuracy:
  | Change of charge density      : 0.3093E-02
  | Change of sum of eigenvalues  : -.7654E+00 eV
  | Change of total energy        : 0.5345E-04 eV

  End self-consistency iteration #     8       :  max(cpu_time)    wall_clock(cpu1)
  | Time for this iteration                    :        2.121 s           2.120 s
  | Charge density update                      :        0.662 s           0.662 s
  | Density mixing                             :        0.015 s           0.014 s
  | Hartree multipole update                   :        0.005 s           0.005 s
  | Hartree multipole summation                :        0.364 s           0.364 s
  | Integration                                :        1.018 s           1.019 s
  | Solution of K.-S. eqns.                    :        0.056 s           0.056 s
  | Total energy evaluation                    :        0.000 s           0.000 s
------------------------------------------------------------

------------------------------------------------------------
          Begin self-consistency iteration #    9

  Date     :  20150727, Time     :  125809.990
------------------------------------------------------------
  Evaluating new KS density.
  Integration grid: deviation in total charge (<rho> - N_e) =  -1.355929E-10
  Pulay mixing of updated and previous charge densities.

  Evaluating partitioned Hartree potential by multipole expansion.
  | Analytical far-field extrapolation by fixed multipoles:
  | Hartree multipole sum: apparent total charge =  -0.139608E-05
  Summing up the Hartree potential.
  Time summed over all CPUs for potential: real work        2.893 s, elapsed        2.904 s
  | RMS charge density error from multipole expansion :   0.180535E-01

  Integrating Hamiltonian matrix: batch-based integration.
  Time summed over all CPUs for integration: real work        8.051 s, elapsed        8.150 s

  Updating Kohn-Sham eigenvalues, eigenvectors, occupation numbers, and Fermi level.
  Solving generalized eigenproblem
  Updating Kohn-Sham eigenvalues and eigenfunctions.
  Solving real generalised eigenvalue problem by standard LAPACK (fast)
  Determining occupation numbers for Kohn-Sham eigenstates.
  | Chemical potential (Fermi level) in eV                 : -.21398008E+01
  | Error in electron count due to remaining E_F inaccuracy: -.10546586E-09
  | Maximum occupation number of highest empty state:  0.00E+00

  Highest occupied state (VBM) at     -6.23690574 eV
  | Occupation number:      2.00000000

  Lowest unoccupied state (CBM) at    -2.13980082 eV
  | Occupation number:      1.00000000

  Overall HOMO-LUMO gap:      4.09710492 eV.

  Total energy components:
  | Sum of eigenvalues            :        -209.79515642 Ha       -5708.81666770 eV
  | XC energy correction          :         -46.85135303 Ha       -1274.89018164 eV
  | XC potential correction       :          59.88864204 Ha        1629.65286583 eV
  | Free-atom electrostatic energy:        -178.68917656 Ha       -4862.37988928 eV
  | Hartree energy correction     :          -7.81993294 Ha        -212.79120198 eV
[...]
   Van der Waals               : -.282571E-04 0.301693E-02 0.183716E-02
   ----------------------------------------------------------------
   Total forces(   7)            : -.134272E+01 0.666107E+00 -.330595E+00
  atom #    8
   Hellmann-Feynman + Multipole  : -.160360E+01 -.199236E+01 -.132804E+02
   Pulay + GGA                   : 0.246817E+01 0.222392E+01 0.115037E+02
   Van der Waals               : -.769944E-02 -.301643E-03 0.184283E-02
   ----------------------------------------------------------------
   Total forces(   8)            : 0.856870E+00 0.231256E+00 -.177485E+01
  atom #    9
   Hellmann-Feynman + Multipole  : -.119657E+00 -.381909E-01 0.431204E+00
   Pulay + GGA                   : 0.106832E+00 0.602088E-01 0.513257E-01
   Van der Waals               : -.402162E-02 -.167952E-02 -.273197E-02
   ----------------------------------------------------------------
   Total forces(   9)            : -.168466E-01 0.203384E-01 0.479798E+00
  atom #   10
   Hellmann-Feynman + Multipole  : -.666957E+00 -.236966E+00 0.138830E+01
   Pulay + GGA                   : -.605890E-01 -.562313E-01 0.925843E-01
   Van der Waals               : 0.227347E-02 -.582525E-02 -.472926E-03
   ----------------------------------------------------------------
   Total forces(  10)            : -.725273E+00 -.299023E+00 0.148041E+01
  atom #   11
   Hellmann-Feynman + Multipole  : -.121691E+02 -.519307E+01 -.130348E+01
   Pulay + GGA                   : 0.129600E+02 0.683979E+01 0.469424E+00
   Van der Waals               : -.375785E-03 -.301368E-02 -.495336E-02
   ----------------------------------------------------------------
   Total forces(  11)            : 0.790541E+00 0.164371E+01 -.839010E+00
  atom #   12
   Hellmann-Feynman + Multipole  : -.226177E+00 -.151397E+00 0.523597E-01
   Pulay + GGA                   : 0.852394E-01 -.339991E-01 0.126868E-01
   Van der Waals               : 0.591009E-03 -.399026E-02 -.412910E-02
   ----------------------------------------------------------------
   Total forces(  12)            : -.140346E+00 -.189386E+00 0.609173E-01
  atom #   13
   Hellmann-Feynman + Multipole  : -.780271E+00 -.139203E+01 0.653206E+00
   Pulay + GGA                   : 0.557604E-01 0.946989E-01 -.669457E-01
   Van der Waals               : 0.189862E-02 -.587213E-02 0.388552E-02
   ----------------------------------------------------------------
   Total forces(  13)            : -.722612E+00 -.130320E+01 0.590145E+00
  atom #   14
   Hellmann-Feynman + Multipole  : 0.995324E+00 -.153154E+02 0.142627E+01
   Pulay + GGA                   : 0.115309E-01 0.154089E+02 -.267666E+01
   Van der Waals               : 0.401197E-03 -.288155E-02 -.250606E-03
   ----------------------------------------------------------------
   Total forces(  14)            : 0.100726E+01 0.905791E-01 -.125063E+01
  atom #   15
   Hellmann-Feynman + Multipole  : -.266163E+00 0.455192E+00 0.252412E+00
   Pulay + GGA                   : -.716756E-01 0.916313E-01 0.832297E-01
   Van der Waals               : 0.406544E-02 -.109760E-02 -.365672E-02
   ----------------------------------------------------------------
   Total forces(  15)            : -.333773E+00 0.545726E+00 0.331985E+00
  atom #   16
   Hellmann-Feynman + Multipole  : -.742137E+00 -.789887E+00 0.104632E+01
   Pulay + GGA                   : 0.372516E-01 0.639790E-01 -.621194E-01
   Van der Waals               : 0.809481E-03 -.290314E-02 -.487385E-03
   ----------------------------------------------------------------
   Total forces(  16)            : -.704076E+00 -.728811E+00 0.983711E+00
  Timings for vdw_correction_hirshfeld (Tkatchenko-Scheffler 2009):
  | CPU time:        5.628 s, Wall clock time:        5.628 s.
  Removing unitary transformations (pure translations, rotations) from forces on atoms.
  Atomic forces before filtering:
  | Net force on center of mass :  0.128352E-02 0.489059E-02 -.154739E-01 eV/A
  | Net torque on center of mass:  0.758555E-02 0.726859E-02 -.224775E-01 eV
  Atomic forces after filtering:
  | Net force on center of mass :  -.624421E-15 0.178406E-15 -.356812E-15 eV/A
  | Net torque on center of mass:  0.755268E-15 -.377634E-15 -.188817E-14 eV
 
  Energy and forces in a compact form:
  | Total energy uncorrected      :         -0.104293149856016E+05 eV
  | Total energy corrected        :         -0.104293178065495E+05 eV  <-- do not rely on this value for anything but (periodic) metals
  | Electronic free energy        :         -0.104293206274975E+05 eV
  Total atomic forces (unitary forces cleaned) [eV/Ang]:
  |   1         -0.182177547024498E+01          0.968583310705494E+00         -0.534428109961562E+00
  |   2          0.591108816940918E+00         -0.118891660186178E+01          0.488802619079449E+00
  |   3          0.114412178650595E+01          0.161204688532215E+00          0.519554623907200E-04
  |   4         -0.100277941055458E-01         -0.159739047569750E-01          0.248140475938733E-01
  |   5          0.166440996848277E+01         -0.418455040261006E+00          0.842031918447163E+00
  |   6         -0.233164936397018E+00         -0.181230735549063E+00         -0.561314242871457E+00
  |   7         -0.134222466944420E+01          0.666339732509035E+00         -0.329324250472329E+00
  |   8          0.856663715027104E+00          0.231435646022555E+00         -0.177394759692319E+01
  |   9         -0.171926877805747E-01          0.207672306756699E-01          0.480632998192144E+00
  |  10         -0.725402156861590E+00         -0.298895751550005E+00          0.148135436521740E+01
  |  11          0.789961255446729E+00          0.164313756929288E+01         -0.838305565981803E+00
  |  12         -0.140823870477152E+00         -0.189686282371920E+00          0.616771206194345E-01
  |  13         -0.723421063419435E+00         -0.130374677744357E+01          0.590729761103681E+00
  |  14          0.100681305737539E+01          0.899066175658691E-01         -0.124985712116787E+01
  |  15         -0.334402232205253E+00          0.544995814332779E+00          0.332661797154523E+00
  |  16         -0.704643718843117E+00         -0.729465515842172E+00          0.984420304508159E+00
 
  ------------------------------------ 
  Start decomposition of the XC Energy 
  ------------------------------------ 
  Hartree-Fock part   :          0.000000000 Ha              0.000000000 eV
  ------------------------------------ 
  X Energy            :        -45.194651514 Ha          -1229.809039686 eV
  C Energy GGA        :         -1.656447600 Ha            -45.074232559 eV
  Total XC Energy     :        -46.851099114 Ha          -1274.883272245 eV
  LDA X and C from self-consistent density 
  X Energy LDA        :        -40.733326284 Ha          -1108.410203488 eV
  C Energy LDA        :         -3.338183656 Ha            -90.836598996 eV
  ------------------------------------ 
  End decomposition of the XC Energy 
  ------------------------------------ 
  Performing Hirshfeld analysis of fragment charges and moments.
  ----------------------------------------------------------------------
  | Atom     1: O
  |   Hirshfeld charge        :     -0.12378382
  |   Free atom volume        :     23.95238533
  |   Hirshfeld volume        :     22.94153996
  |   Hirshfeld dipole vector :      0.01973767       0.02991385       0.01560886
  |   Hirshfeld dipole moment :      0.03909029
  |   Hirshfeld second moments:      0.05338100      -0.00585799      -0.01155449
  |                                 -0.00585799       0.01635671      -0.02552125
  |                                 -0.01155449      -0.02552125       0.04274684
  ----------------------------------------------------------------------
  | Atom     2: H
  |   Hirshfeld charge        :      0.08519229
  |   Free atom volume        :     10.44207651
  |   Hirshfeld volume        :     12.41115763
  |   Hirshfeld dipole vector :      0.01852198       0.01593860       0.00499204
  |   Hirshfeld dipole moment :      0.02494040
  |   Hirshfeld second moments:     -0.01348477       0.01518013      -0.00675373
  |                                  0.01518013      -0.00968744       0.01250998
  |                                 -0.00675373       0.01250998      -0.00617669
  ----------------------------------------------------------------------
  | Atom     3: H
  |   Hirshfeld charge        :      0.09458050
  |   Free atom volume        :     10.44207651
  |   Hirshfeld volume        :     10.31712754
  |   Hirshfeld dipole vector :      0.01711297       0.01381445       0.00056817
  |   Hirshfeld dipole moment :      0.02200035
  |   Hirshfeld second moments:      0.01401342      -0.01345311      -0.00421778
  |                                 -0.01345311       0.03804662       0.00810488
  |                                 -0.00421778       0.00810488       0.03898354
  ----------------------------------------------------------------------
  | Atom     4: H
  |   Hirshfeld charge        :      0.08721840
  |   Free atom volume        :     10.44207651
  |   Hirshfeld volume        :     13.29766120
  |   Hirshfeld dipole vector :      0.00149142       0.01184860       0.01073048
  |   Hirshfeld dipole moment :      0.01605481
  |   Hirshfeld second moments:     -0.01066896       0.00720804       0.00656483
  |                                  0.00720804      -0.00663089       0.00715365
  |                                  0.00656483       0.00715365      -0.04559784
  ----------------------------------------------------------------------
  | Atom     5: O
  |   Hirshfeld charge        :     -0.23262604
  |   Free atom volume        :     23.95238533
  |   Hirshfeld volume        :     22.52749163
  |   Hirshfeld dipole vector :     -0.00843894      -0.01508479       0.03146683
  |   Hirshfeld dipole moment :      0.03590165
  |   Hirshfeld second moments:      0.05081786      -0.01876554       0.00687975
  |                                 -0.01876554       0.02888901       0.03828287
  |                                  0.00687975       0.03828287      -0.01182545
  ----------------------------------------------------------------------
  | Atom     6: H
  |   Hirshfeld charge        :      0.09037118
  |   Free atom volume        :     10.44207651
  |   Hirshfeld volume        :      9.62028194
  |   Hirshfeld dipole vector :      0.00590911       0.02991669       0.03181231
  |   Hirshfeld dipole moment :      0.04406755
  |   Hirshfeld second moments:      0.06762866      -0.00297064       0.00319240
  |                                 -0.00297064       0.04035424      -0.00441071
  |                                  0.00319240      -0.00441071       0.01863394
  ----------------------------------------------------------------------
  | Atom     7: H
  |   Hirshfeld charge        :      0.11628687
  |   Free atom volume        :     10.44207651
  |   Hirshfeld volume        :     10.41025989
  |   Hirshfeld dipole vector :      0.06228898      -0.04098674       0.00216987
  |   Hirshfeld dipole moment :      0.07459583
  |   Hirshfeld second moments:      0.04281822      -0.00017879       0.00030893
  |                                 -0.00017879       0.04087732       0.02198644
  |                                  0.00030893       0.02198644       0.03618000
  ----------------------------------------------------------------------
  | Atom     8: O
  |   Hirshfeld charge        :     -0.20576795
  |   Free atom volume        :     23.95238533
  |   Hirshfeld volume        :     21.06270495
  |   Hirshfeld dipole vector :     -0.01039288       0.00972651       0.00658569
  |   Hirshfeld dipole moment :      0.01568401
  |   Hirshfeld second moments:      0.07556655       0.02376740      -0.00848643
  |                                  0.02376740       0.04767939       0.00375697
  |                                 -0.00848643       0.00375697       0.06349153
  ----------------------------------------------------------------------
  | Atom     9: H
  |   Hirshfeld charge        :      0.13268476
  |   Free atom volume        :     10.44207651
  |   Hirshfeld volume        :      9.22199458
  |   Hirshfeld dipole vector :      0.05716422       0.05015976       0.01609834
  |   Hirshfeld dipole moment :      0.07773613
  |   Hirshfeld second moments:      0.06153763       0.00414645      -0.00967816
  |                                  0.00414645       0.05829440      -0.00259011
  |                                 -0.00967816      -0.00259011       0.07167994
  ----------------------------------------------------------------------
  | Atom    10: H
  |   Hirshfeld charge        :      0.13141230
  |   Free atom volume        :     10.44207651
  |   Hirshfeld volume        :      9.40945773
  |   Hirshfeld dipole vector :     -0.05181119      -0.00835690       0.05003182
  |   Hirshfeld dipole moment :      0.07250808
  |   Hirshfeld second moments:      0.06076315      -0.00050450       0.00835072
  |                                 -0.00050450       0.04695160       0.01251815
  |                                  0.00835072       0.01251815       0.06721981
  ----------------------------------------------------------------------
  | Atom    11: O
  |   Hirshfeld charge        :     -0.26303965
  |   Free atom volume        :     23.95238533
  |   Hirshfeld volume        :     22.25607630
  |   Hirshfeld dipole vector :      0.02136834       0.02455135       0.03429601
  |   Hirshfeld dipole moment :      0.04728204
  |   Hirshfeld second moments:      0.02523199      -0.01631557      -0.01341168
  |                                 -0.01631557       0.03343910      -0.04873074
  |                                 -0.01341168      -0.04873074      -0.00187531
  ----------------------------------------------------------------------
  | Atom    12: H
  |   Hirshfeld charge        :      0.08971896
  |   Free atom volume        :     10.44207651
  |   Hirshfeld volume        :      8.66269474
  |   Hirshfeld dipole vector :      0.05036294      -0.01319135       0.01837912
  |   Hirshfeld dipole moment :      0.05521077
  |   Hirshfeld second moments:      0.05018137       0.01474229      -0.02228050
  |                                  0.01474229       0.07114225      -0.00460491
  |                                 -0.02228050      -0.00460491       0.05418804
  ----------------------------------------------------------------------
  | Atom    13: H
  |   Hirshfeld charge        :      0.13205221
  |   Free atom volume        :     10.44207651
  |   Hirshfeld volume        :      7.81094939
  |   Hirshfeld dipole vector :      0.02884473       0.09427118      -0.04047608
  |   Hirshfeld dipole moment :      0.10657104
  |   Hirshfeld second moments:      0.09787682      -0.01359365      -0.00152895
  |                                 -0.01359365       0.08191094      -0.01323006
  |                                 -0.00152895      -0.01323006       0.08128366
  ----------------------------------------------------------------------
  | Atom    14: O
  |   Hirshfeld charge        :     -0.33830120
  |   Free atom volume        :     23.95238533
  |   Hirshfeld volume        :     23.66212518
  |   Hirshfeld dipole vector :     -0.00496322       0.07596432      -0.01350074
  |   Hirshfeld dipole moment :      0.07731418
  |   Hirshfeld second moments:     -0.02945108      -0.02227314      -0.06085643
  |                                 -0.02227314      -0.04319613       0.00606453
  |                                 -0.06085643       0.00606453      -0.00461360
  ----------------------------------------------------------------------
  | Atom    15: H
  |   Hirshfeld charge        :      0.12014395
  |   Free atom volume        :     10.44207651
  |   Hirshfeld volume        :      7.35129341
  |   Hirshfeld dipole vector :     -0.06343552       0.08967841       0.06136211
  |   Hirshfeld dipole moment :      0.12582365
  |   Hirshfeld second moments:      0.08801304       0.00032045      -0.01937433
  |                                  0.00032045       0.08712984      -0.00758312
  |                                 -0.01937433      -0.00758312       0.10240486
  ----------------------------------------------------------------------
  | Atom    16: H
  |   Hirshfeld charge        :      0.08381888
  |   Free atom volume        :     10.44207651
  |   Hirshfeld volume        :      8.90959464
  |   Hirshfeld dipole vector :      0.01911916       0.04826820      -0.03607732
  |   Hirshfeld dipole moment :      0.06322131
  |   Hirshfeld second moments:      0.05247925      -0.02501762       0.00836432
  |                                 -0.02501762       0.06650640       0.00899946
  |                                  0.00836432       0.00899946       0.03180839
  ----------------------------------------------------------------------


------------------------------------------------------------------------------
  Final output of selected total energy values:

  The following output summarizes some interesting total energy values
  at the end of a run (AFTER all relaxation, molecular dynamics, etc.).

  | Total energy of the DFT / Hartree-Fock s.c.f. calculation      :         -10429.314985602 eV
  | Final zero-broadening corrected energy (caution - metals only) :         -10429.317806550 eV
  | For reference only, the value of 1 Hartree used in FHI-aims is :             27.211384500 eV

  Before relying on these values, please be sure to understand exactly which
  total energy value is referred to by a given number. Different objects may
  all carry the same name 'total energy'. Definitions:

  Total energy of the DFT / Hartree-Fock s.c.f. calculation:
  | Note that this energy does not include ANY quantities calculated after the
  | s.c.f. cycle, in particular not ANY RPA, MP2, etc. many-body perturbation terms.

  Final zero-broadening corrected energy:
  | For metallic systems only, a broadening of the occupation numbers at the Fermi
  | level can be extrapolated back to zero broadening by an electron-gas inspired
  | formula. For all systems that are not real metals, this value can be
  | meaningless and should be avoided.

------------------------------------------------------------------------------

------------------------------------------------------------
          Leaving FHI-aims.
          Date     :  20150727, Time     :  125831.271

          Computational steps:
          | Number of self-consistency cycles          :           16

          Detailed time accounting                     :  max(cpu_time)    wall_clock(cpu1)
          | Total time                                 :       40.903 s          40.945 s
          | Preparation time                           :        0.174 s           0.468 s
          | Grid partitioning                          :        0.165 s           0.164 s
          | Preloading free-atom quantities on grid    :        0.014 s           0.013 s
          | Free-atom superposition energy             :        0.073 s           0.073 s
          | Total time for integrations                :       17.890 s          17.889 s
          | Total time for solution of K.-S. equations :        1.120 s           1.124 s
          | Total time for density & force components  :       13.530 s          13.529 s
          | Total time for mixing                      :        0.216 s           0.218 s
          | Total time for Hartree multipole update    :        0.080 s           0.079 s
          | Total time for Hartree multipole sum       :        7.042 s           7.043 s
          | Total time for total energy evaluation     :        0.003 s           0.004 s
          | Total time for scaled ZORA corrections     :        0.000 s           0.000 s
          | Total time for TS (2009) vdW correction    :        0.058 s           0.058 s

          Have a nice day.
------------------------------------------------------------
