  MPI-parallelism will be employed.
------------------------------------------------------------
          Invoking FHI-aims ...
          Version 081213
          Compiled on 2013/08/29 at 17:41:06 on host generoso.

          When using FHI-aims, please cite the following reference:

          Volker Blum, Ralf Gehrke, Felix Hanke, Paula Havu,
          Ville Havu, Xinguo Ren, Karsten Reuter, and Matthias Scheffler,
          'Ab Initio Molecular Simulations with Numeric Atom-Centered Orbitals: FHI-aims',
          Computer Physics Communications 180, 2175-2196 (2009)

          For any questions about FHI-aims, please visit the aimsclub website
          with its forums and wiki. Contributions to both the forums and the
          wiki are warmly encouraged - they are for you, and everyone is welcome there.

------------------------------------------------------------

  Date     :  20150727, Time     :  125709.740
  Time zero on CPU 1             :   0.429930000000000E-01  s.
  Internal wall clock time zero  :           207233829.740  s.

  Using        8 parallel tasks.
  Task        0 on host gen59 reporting.
  Task        1 on host gen59 reporting.
  Task        2 on host gen59 reporting.
  Task        3 on host gen59 reporting.
  Task        4 on host gen59 reporting.
  Task        5 on host gen59 reporting.
  Task        6 on host gen59 reporting.
  Task        7 on host gen59 reporting.

  Performing system and environment tests:
  | Environment variable OMP_NUM_THREADS correctly set to 1.
  | Checking for scalapack...
  | No scalapack compiled in.

  Obtaining array dimensions for all initial allocations:
  
  -----------------------------------------------------------------------
  Parsing control.in (first pass over file, find array dimensions only).
  The contents of control.in will be repeated verbatim below
  unless switched off by setting 'verbatim_writeout .false.' .
  in the first line of control.in .
  -----------------------------------------------------------------------
  
  #########################################################################################
  #
  #  Volker Blum, FHI 2008 : Test run input file control.in
  #
  #########################################################################################
  #
  #  Physical model
  #
    xc                 rpbe
    spin               none
    relativistic       atomic_zora scalar
    charge             0.
   vdw_correction_hirshfeld
  #
  #  SCF convergence
  #
    occupation_type    gaussian 0.01
    mixer              pulay
      n_max_pulay        10
      charge_mix_param   0.1
    sc_accuracy_rho    5E-5
    sc_accuracy_eev    5E-3
    sc_accuracy_etot   5E-6
    sc_iter_limit      3000
  #
  #  Eigenvalue solver
  #
    KS_method          lapack
      empty_states       8
      basis_threshold    0.e-5
  #
  #  Efficiency
  #
  #   all previous settings are now default, except stratmann still
  #   undecided. Continue to handle stratmann with care, if at all.
  #
  #  partition_type stratmann
    partition_type rho_r2
  #  hartree_partition_type stratmann
  #
  #  Oprions for large clusters (100's of atoms: memory saving / better scaling)
  #
  # for periodic systems:
  #
    density_update_method orbital
    packed_matrix_format none
  #  k_grid 6 6 6
  #  output k_eigenvalue 1
  #  distributed_spline_storage .true.
  #
  #  Relaxation
  #
  #  relax_geometry   bfgs 5.e-3
    sc_accuracy_forces 5.E-4
    final_forces_cleaned .true.
  #
  #  Output options
  #
  #  output mulliken
    output Hirshfeld
  #  output dipole
  
  #harmonic_length_scale 0.001
  
  ################################################################################
  #
  #  FHI-aims code project
  #  VB, Fritz-Haber Institut, 2007
  #
  #  Suggested "safe" defaults for H atom (to be pasted into control.in file)
  #  Basis constructed for a non-relativistic H2 molecule using the
  #  PW-LDA functional.
  #
  ################################################################################
    species        H
  #     global species definitions
      nucleus             1
      cut_pot             4.0  2.0  1.0
      cut_free_atom       finite 8.0
      logarithmic         0.00010000 100.00  1.0123
      basis_dep_cutoff    1d-4  # 1d-4 is safe default - please check 5d-4 if you wish!
      radial_base         24 7.0
      radial_multiplier   2
      angular_grids       specified
        division   0.2783  110
        division   0.3822  194
        division   0.5626  302
  #      division   0.5922  434
  #      division   0.6227  590
  #      division   0.7206  770
        outer_grid  302
      l_hartree           4
  ################################################################################
  #
  #  Definition of "minimal" basis
  #
  ################################################################################
  #     valence basis states
      valence      1  s   1.
  #     ion occupancy
      ion_occ      1  s   0.5
  ################################################################################
  #
  #  Suggested additional basis functions. For production calculations,
  #  uncomment them one after another (the most important basis functions are
  #  listed first).
  #
  ################################################################################
  #  "First tier" - improvements: -1014.90 meV to -62.69 meV
       hydro 2 s 2.1
       hydro 2 p 3.5
  #  "Second tier" - improvements: -12.89 meV to -1.83 meV
       hydro 1 s 0.85
       hydro 2 p 3.7
       hydro 2 s 1.2
       hydro 3 d 7
  #  "Third tier" - improvements: -0.25 meV to -0.12 meV
  #     hydro 4 f 11.2
  #     hydro 3 p 4.8
  #     hydro 4 d 9
  #     hydro 3 s 3.2
  
  ################################################################################
  #
  #  FHI-aims code project
  #  VB, Fritz-Haber Institut, 2007
  #
  #  Suggested "safe" defaults for O atom (to be pasted into control.in file)
  #  All values have been tested for a non-relativistic, non-spinpolarized O2
  #  molecule using the PW-LDA functional. Validity for PBE is expected.
  #
  #  Constructed for dimers: 1.0 A, 1.208 A, 1.5 A, 2.0 A, 3.0 A
  #
  ################################################################################
    species        O
  #     global species definitions
      nucleus             8
      mass                15.9994
      l_hartree           4
      cut_pot             4.0  2.0  1.0
      cut_free_atom       finite 8.0
      basis_dep_cutoff    1d-4  # 1d-4 is safe default - please check 5d-4 if you wish!
      logarithmic         0.00010000 100.00  1.0123
      radial_base         36 7.0
      radial_multiplier   2
       angular_grids specified
        division   0.4087  110
        division   0.5181  194
        division   0.6184  302
  #      division   0.7315  434
  #      division   0.7934  590
  #      division   0.9656  770
  #      division   1.4041  974
  #      outer_grid 974
        outer_grid 302
  ################################################################################
  #
  #  Definition of "minimal" basis
  #
  ################################################################################
  #     valence basis states
      valence      2  s   2.
      valence      2  p   4.
  #     ion occupancy
      ion_occ      2  s   1.
      ion_occ      2  p   3.
  ################################################################################
  #
  #  Suggested additional basis functions. For production calculations,
  #  uncomment them one after another (the most important basis functions are
  #  listed first).
  #
  ################################################################################
  #  "First tier" - improvements: -699.05 meV to -159.38 meV
       hydro 2 p 1.8
       hydro 3 d 7.6
       hydro 3 s 6.4
  #  "Second tier" - improvements: -49.91 meV to -5.39 meV
       hydro 4 f 11.6
       hydro 3 p 6.2
       hydro 3 d 5.6
       hydro 5 g 17.6
       hydro 1 s 0.75
  #  "Third tier" - improvements: -2.83 meV to -0.50 meV
  #     ionic 2 p auto
  #     hydro 4 f 10.8
  #     hydro 4 d 4.7
  #     hydro 2 s 6.8
  #  "Fourth tier" - improvements: -0.40 meV to -0.12 meV
  #     hydro 3 p 5
  #     hydro 3 s 3.3
  #     hydro 5 g 15.6
  #     hydro 4 f 17.6
  #     hydro 4 d 14
  # Further basis functions - -0.08 meV and below
  #     hydro 3 s 2.1
  #     hydro 4 d 11.6
  #     hydro 3 p 16
  #     hydro 2 s 17.2
  
  
  -----------------------------------------------------------------------
  Completed first pass over input file control.in .
  -----------------------------------------------------------------------
  
  
  -----------------------------------------------------------------------
  Parsing geometry.in (first pass over file, find array dimensions only).
  The contents of geometry.in will be repeated verbatim below
  unless switched off by setting 'verbatim_writeout .false.' .
  in the first line of geometry.in .
  -----------------------------------------------------------------------
  
  atom      -4.053030000      0.065001000     -1.525160000  O
  atom      -4.566710000      0.974813000     -1.912820000  H
  atom      -3.067820000      0.330172000     -1.477310000  H
  atom      -4.370360000     -0.049164000     -0.572274000  H
  atom      -1.645860000      0.870179000     -1.502250000  O
  atom      -1.568890000      1.501730000     -0.721051000  H
  atom      -0.824432000      0.282220000     -1.377720000  H
  atom      -3.818880000      2.024990000      2.187990000  O
  atom      -3.690880000      1.961360000      3.202150000  H
  atom      -4.546490000      2.751300000      2.045370000  H
  atom      -5.628340000      3.730740000      1.385610000  O
  atom      -6.090650000      4.418470000      1.860350000  H
  atom      -5.158540000      4.200260000      0.615875000  H
  
  -----------------------------------------------------------------------
  Completed first pass over input file geometry.in .
  -----------------------------------------------------------------------
  
 
  Basic array size parameters: 
  | Number of species                 :        2
  | Number of atoms                   :       13
  | Max. basis fn. angular momentum   :        4
  | Max. atomic/ionic basis occupied n:        2
  | Max. number of basis fn. types    :        2
  | Max. radial fns per species/type  :        8
  | Max. logarithmic grid size        :     1301
  | Max. radial integration grid size :       73
  | Max. angular integration grid size:      302
  | Max. angular grid division number :        8
  | Radial grid for Hartree potential :     1301
  | Number of spin channels           :        1

------------------------------------------------------------
          Reading file control.in.
------------------------------------------------------------
  XC: Using RPBE gradient-corrected functionals.
  Spin treatment: No spin polarisation.
  Scalar relativistic treatment of kinetic energy: on-site free-atom approximation to ZORA.
  Charge =   0.000000E+00: Neutral system requested explicitly.
  Using non-empirical van der Waals correction (Hirshfeld partitioning):
  Occupation type: Gaussian broadening, width =   0.100000E-01 eV.
  Using pulay charge density mixing.
  Pulay mixing - number of memorized iterations:   10
  Charge density mixing - mixing parameter:     0.1000
  Convergence accuracy of self-consistent charge density: 0.5000E-04
  Convergence accuracy of sum of eigenvalues: 0.5000E-02
  Convergence accuracy of total energy: 0.5000E-05
  Maximum number of s.-c. iterations  :  3000
  Kohn-Sham eigenvalues and eigenfunctions calculated by lapack diagonalisation (D&C).
  Number of empty states per atom:        8
  Threshold for basis singularities: 0.0000E+00
  Partition function in integrals calculations: rho / r^2
 Using packed matrix format           0
  Convergence accuracy of forces: 0.5000E-03
  Cleaning forces before final output.
  Hirshfeld charge analysis will be performed.
 
  Reading configuration options for species H                   .
  | Found nuclear charge :   1.0000
  | Found cutoff potl. onset [A], width [A], scale factor :    4.00000    2.00000    1.00000
  | Found cutoff specification for free atom: Cutoff potential begins at    8.00000 A.
  | Found logarithmic grid data [bohr] : 0.1000E-03 0.1000E+03 0.1012E+01
  | Threshold for basis-dependent cutoff potential is   0.100000E-03
  | Found data for basic radial integration grid :    24 points, outermost radius =    7.000 A
  | Found multiplier for basic radial grid :   2
  | Found angular grid specification: user-specified.
  | Specified grid contains     4 separate shells.
  | Check grid settings after all constraints further below.
  | Found l_max for Hartree potential  :   4
  | Found free-atom valence shell :  1 s   1.000
  | No ionic wave fns used. Skipping ion_occ.
  | Found hydrogenic basis function :  2 s   2.100
  | Found hydrogenic basis function :  2 p   3.500
  | Found hydrogenic basis function :  1 s   0.850
  | Found hydrogenic basis function :  2 p   3.700
  | Found hydrogenic basis function :  2 s   1.200
  | Found hydrogenic basis function :  3 d   7.000
  Species H                   : Missing cutoff potential type.
  Defaulting to exp(1/x)/(1-x)^2 type cutoff potential.
  Species H : On-site basis accuracy parameter (for Gram-Schmidt orthonormalisation) not specified.
  Using default value basis_acc =  0.1000000E-03.
  Species H                   : Using default innermost maximum threshold i_radial=  2 for radial functions.
  Species H                   : Basic radial grid will be enhanced according to radial_multiplier =   2, to contain    49 grid points.
 
  Reading configuration options for species O                   .
  | Found nuclear charge :   8.0000
  | Found atomic mass :    15.9994000000000      amu
  | Found l_max for Hartree potential  :   4
  | Found cutoff potl. onset [A], width [A], scale factor :    4.00000    2.00000    1.00000
  | Found cutoff specification for free atom: Cutoff potential begins at    8.00000 A.
  | Threshold for basis-dependent cutoff potential is   0.100000E-03
  | Found logarithmic grid data [bohr] : 0.1000E-03 0.1000E+03 0.1012E+01
  | Found data for basic radial integration grid :    36 points, outermost radius =    7.000 A
  | Found multiplier for basic radial grid :   2
  | Found angular grid specification: user-specified.
  | Specified grid contains     4 separate shells.
  | Check grid settings after all constraints further below.
  | Found free-atom valence shell :  2 s   2.000
  | Found free-atom valence shell :  2 p   4.000
  | No ionic wave fns used. Skipping ion_occ.
  | No ionic wave fns used. Skipping ion_occ.
  | Found hydrogenic basis function :  2 p   1.800
  | Found hydrogenic basis function :  3 d   7.600
  | Found hydrogenic basis function :  3 s   6.400
  | Found hydrogenic basis function :  4 f  11.600
  | Found hydrogenic basis function :  3 p   6.200
  | Found hydrogenic basis function :  3 d   5.600
  | Found hydrogenic basis function :  5 g  17.600
  | Found hydrogenic basis function :  1 s   0.750
  Species O                   : Missing cutoff potential type.
  Defaulting to exp(1/x)/(1-x)^2 type cutoff potential.
  Species O : On-site basis accuracy parameter (for Gram-Schmidt orthonormalisation) not specified.
  Using default value basis_acc =  0.1000000E-03.
  Species O                   : Using default innermost maximum threshold i_radial=  2 for radial functions.
  Species O                   : Basic radial grid will be enhanced according to radial_multiplier =   2, to contain    73 grid points.
 
  Finished reading input file 'control.in'. Consistency checks are next.
 
  Target number of points in a grid batch is not set. Defaulting to  100
  Method for grid partitioning is not set. Defaulting to parallel hash+maxmin partitioning.
  Batch size limit is not set. Defaulting to    200
  By default, will store active basis functions for each batch.
  If in need of memory, prune_basis_once .false. can be used to disable this option.
  communication_type for Hartree potential was not specified.
  Defaulting to calc_hartree .
  Pulay mixer: Number of initial linear mixing iterations not set.
  Defaulting to    0 iterations.
  Work space size for distributed Hartree potential not set.
  Defaulting to   0.200000E+03 MB.
  Algorithm-dependent basis array size parameters:
  | n_max_pulay                         :       10
  Geometry relaxation not requested: no relaxation will be performed.
  Handling of forces: Unphysical translation and rotation will be removed from forces.
  No accuracy limit for integral partition fn. given. Defaulting to 0.1000E-14.
  No threshold value for u(r) in integrations given. Defaulting to 0.1000E-05.
  No accuracy for occupation numbers given. Defaulting to 0.1000E-07.
  No threshold value for occupation numbers given. Defaulting to 0.0000E+00.
  No accuracy for fermi level given. Defaulting to 0.1000E-19.
  Maximum # of iterations to find E_F not set. Defaulting to  200.
  Will not use alltoall communication since running on < 1024 CPUs.
  Partitioning for Hartree potential was not defined. Using partition_type for integrals.
  | Reporting present value of keyword multip_moments_threshold  :       0.10000000E-09
  | This value may affect high angular momentum components of the Hartree potential in periodic systems.
  No q(lm)/r^(l+1) cutoff set for long-range Hartree potential.
  | Using default value of  0.100000E-09 .
  | Verify using the multipole_threshold keyword.
  Defaulting to new monopole extrapolation.
  Density update method: Loop over occupied states selected for charge density update.
------------------------------------------------------------


------------------------------------------------------------
          Reading geometry description geometry.in.
------------------------------------------------------------
  Input structure read successfully.
  The structure contains       13 atoms,  and a total of         41.000 electrons.

  Input geometry:
  | No unit cell requested.
  | Atomic structure:
  |       Atom                x [A]            y [A]            z [A]
  |    1: Species O             -4.053030         0.065001        -1.525160
  |    2: Species H             -4.566710         0.974813        -1.912820
  |    3: Species H             -3.067820         0.330172        -1.477310
  |    4: Species H             -4.370360        -0.049164        -0.572274
  |    5: Species O             -1.645860         0.870179        -1.502250
  |    6: Species H             -1.568890         1.501730        -0.721051
  |    7: Species H             -0.824432         0.282220        -1.377720
  |    8: Species O             -3.818880         2.024990         2.187990
  |    9: Species H             -3.690880         1.961360         3.202150
  |   10: Species H             -4.546490         2.751300         2.045370
  |   11: Species O             -5.628340         3.730740         1.385610
  |   12: Species H             -6.090650         4.418470         1.860350
  |   13: Species H             -5.158540         4.200260         0.615875
  |

  | The smallest distance between any two atoms is         0.95502940 AA.
  |
  | The first atom of this pair is atom number                     11 .
  | The second atom of this pair is atom number                    12 .

  Structure-dependent array size parameters: 
  | Maximum number of distinct radial functions  :       18
  | Maximum number of basis functions            :      291
  | Number of Kohn-Sham states (occupied + empty):       73
------------------------------------------------------------

------------------------------------------------------------
          Preparing all fixed parts of the calculation.
------------------------------------------------------------
  Determining machine precision:
    2.225073858507201E-308
  Setting up grids for atomic and cluster calculations.

  Creating wave function, potential, and density for free atoms.

  Species: H

  List of occupied orbitals and eigenvalues:
    n    l              occ      energy [Ha]    energy [eV]
    1    0           1.0000        -0.241408        -6.5691


  Species: O

  List of occupied orbitals and eigenvalues:
    n    l              occ      energy [Ha]    energy [eV]
    1    0           2.0000       -18.944147      -515.4965
    2    0           2.0000        -0.883529       -24.0421
    2    1           4.0000        -0.330176        -8.9845

  Creating fixed part of basis set: Ionic, confined, hydrogenic.
 
  H                    hydrogenic:
 
  List of hydrogenic basis orbitals: 
    n    l      effective z      eigenvalue [eV]  inner max. [A]     outer max. [A]     outer radius [A]   
    2    0         2.100000       -14.9965           0.193241           1.317192           5.372934
    2    1         3.500000       -41.6672           0.602363           0.602363           4.056010
    1    0         0.850000        -9.8292           0.624864           0.624864           5.372934
    2    1         3.700000       -46.5653           0.573616           0.573616           3.909951
    2    0         1.200000        -4.5995           0.334977           2.228160           5.505921
    3    2         7.000000       -74.0753           0.680692           0.680692           3.769152
 
 
  O                    hydrogenic:
 
  List of hydrogenic basis orbitals: 
    n    l      effective z      eigenvalue [eV]  inner max. [A]     outer max. [A]     outer radius [A]   
    2    1         1.800000       -11.0118           1.178546           1.178546           5.432516
    3    2         7.600000       -87.3182           0.624117           0.624117           3.541422
    3    0         6.400000       -61.9209           0.061166           1.081887           4.306510
    4    3        11.600000      -114.4238           0.731621           0.731621           3.584982
    3    1         6.200000       -58.1113           0.255677           1.030255           4.306510
    3    2         5.600000       -47.4081           0.847222           0.847222           4.413102
    5    4        17.600000      -168.5799           0.749730           0.749730           3.372413
    1    0         0.750000        -7.6499           0.705275           0.705275           5.366508
 

  Adding cutoff potential to free-atom effective potential.
  Creating atomic-like basis functions for current effective potential.

  Species H                   :

  List of atomic basis orbitals and eigenvalues:
    n    l      energy [Ha]    energy [eV]    outer radius [A]
    1    0        -0.241374        -6.5681       5.372934


  Species O                   :

  List of atomic basis orbitals and eigenvalues:
    n    l      energy [Ha]    energy [eV]    outer radius [A]
    1    0       -18.944147      -515.4965       1.415745
    2    0        -0.883529       -24.0421       5.048305
    2    1        -0.330173        -8.9845       5.301302

  Assembling full basis from fixed parts.
  | Species H :   atomic orbital   1 s accepted.
  | Species H :    hydro orbital   2 s accepted.
  | Species H :    hydro orbital   1 s accepted.
  | Species H :    hydro orbital   2 s accepted.
  | Species H :    hydro orbital   2 p accepted.
  | Species H :    hydro orbital   2 p accepted.
  | Species H :    hydro orbital   3 d accepted.
  | Species O :   atomic orbital   1 s accepted.
  | Species O :    hydro orbital   3 s accepted.
  | Species O :   atomic orbital   2 s accepted.
  | Species O :    hydro orbital   1 s accepted.
  | Species O :    hydro orbital   3 p accepted.
  | Species O :   atomic orbital   2 p accepted.
  | Species O :    hydro orbital   2 p accepted.
  | Species O :    hydro orbital   3 d accepted.
  | Species O :    hydro orbital   3 d accepted.
  | Species O :    hydro orbital   4 f accepted.
  | Species O :    hydro orbital   5 g accepted.
 
  Basis size parameters after reduction:
  | Total number of radial functions:       18
  | Total number of basis functions :      291
 
  Testing on-site integration grid accuracy.
  |  Species  Function  <phi|h_atom|phi> (log., in eV)  <phi|h_atom|phi> (rad., in eV)
           1        1                 -6.5683835025                 -6.5684759159
           1        2                 13.3711789951                 13.3708738703
           1        3                 23.6590910787                 23.6532055418
           1        4                 16.2963827186                 16.1870710655 ***
           1        5                 28.7627214838                 28.7627215090
           1        6                 59.5965249172                 59.5965950857
           1        7                 60.2220506392                 60.2220503827
           2        8               -515.4964576505               -515.4964530710
           2        9                 15.3030791347                 15.3030722972
           2       10                -21.7296094581                -21.7296135470
           2       11                 14.2969371730                 14.2969701621
           2       12                 21.0679693190                 21.0679697493
           2       13                 -2.3833606469                 -2.3833613176
           2       14                 13.7067136422                 13.7066766629
           2       15                 45.8013116808                 45.8013116965
           2       16                 52.2309815402                 52.2309831494
           2       17                 85.4120732416                 85.4120732763
           2       18                142.1019167745                142.1019167817
 * Note: Onsite integrals marked "***" above are less accurate than
 * onsite_accuracy_threshold =    0.03000 eV. Usually, this is harmless.
 * When in doubt, tighten the "radial" and/or "radial_multiplier" flags to check.

  Preparing densities etc. for the partition functions (integrals / Hartree potential).

  Preparations completed.
  max(cpu_time)          :      0.168 s.
  Wall clock time (cpu1) :      0.484 s.
------------------------------------------------------------

------------------------------------------------------------
          Begin self-consistency loop: Initialization.

          Date     :  20150727, Time     :  125710.238
------------------------------------------------------------

  Initializing index lists of integration centers etc. from given atomic structure:
  | Number of centers in hartree potential         :        13
  | Number of centers in hartree multipole         :        13
  | Number of centers in electron density summation:        13
  | Number of centers in basis integrals           :        13
  | Number of centers in integrals                 :        13
  Partitioning the integration grid into batches with parallel hashing+maxmin method.
  | Number of batches:     1624
  | Maximal batch size:     200
  | Minimal batch size:      49
  | Average batch size:     104.041
  | Standard deviation of batch sizes:      35.055

  Integration load balanced across     8 MPI tasks.
  Work distribution over tasks is as follows:
  Task     0 has      21157 integration points.
  Task     1 has      21040 integration points.
  Task     2 has      21029 integration points.
  Task     3 has      21159 integration points.
  Task     4 has      21172 integration points.
  Task     5 has      21187 integration points.
  Task     6 has      21028 integration points.
  Task     7 has      21190 integration points.
  Initializing partition tables, free-atom densities, potentials, etc. across the integration grid (initialize_grid_storage).
  | Net number of integration points:   168962
  | of which are non-zero points    :   168423
  Obtaining max. number of non-zero basis functions in each batch (get_n_compute_maxes).
  | Maximal number of non-zero basis functions:      288 in task     0
  | Maximal number of non-zero basis functions:      288 in task     1
  | Maximal number of non-zero basis functions:      288 in task     2
  | Maximal number of non-zero basis functions:      288 in task     3
  | Maximal number of non-zero basis functions:      288 in task     4
  | Maximal number of non-zero basis functions:      288 in task     5
  | Maximal number of non-zero basis functions:      288 in task     6
  | Maximal number of non-zero basis functions:      288 in task     7
  Integrating Hamiltonian matrix: batch-based integration.
  Time summed over all CPUs for integration: real work        4.421 s, elapsed        4.511 s
  Integrating overlap matrix.
  Time summed over all CPUs for integration: real work        2.334 s, elapsed        2.372 s

  Updating Kohn-Sham eigenvalues, eigenvectors, occupation numbers, and Fermi level.
  Solving generalized eigenproblem
  Updating Kohn-Sham eigenvalues and eigenfunctions.
  Transforming overlap matrix and checking for singularities.
  Overlap matrix is nonsingular:
  | Lowest eigenvalue:  0.291126E-03
  Solving real generalised eigenvalue problem by standard LAPACK (fast)
  Determining occupation numbers for Kohn-Sham eigenstates.
  | Chemical potential (Fermi level) in eV                 : -.28866341E+01
  | Error in electron count due to remaining E_F inaccuracy: -.88247987E-09
  | Maximum occupation number of highest empty state:  0.00E+00

  Writing Kohn-Sham eigenvalues.

  State    Occupation    Eigenvalue [Ha]    Eigenvalue [eV]
      1       2.00000         -19.064916         -518.78276
      2       2.00000         -19.050503         -518.39056
      3       2.00000         -19.042471         -518.17200
      4       2.00000         -19.028887         -517.80237
      5       2.00000          -1.122280          -30.53879
      6       2.00000          -1.098940          -29.90367
      7       2.00000          -1.081741          -29.43568
      8       2.00000          -1.059639          -28.83424
      9       2.00000          -0.639296          -17.39613
     10       2.00000          -0.628159          -17.09307
     11       2.00000          -0.603967          -16.43478
     12       2.00000          -0.601074          -16.35604
     13       2.00000          -0.600014          -16.32721
     14       2.00000          -0.518369          -14.10553
     15       2.00000          -0.515308          -14.02225
     16       2.00000          -0.486336          -13.23387
     17       2.00000          -0.482851          -13.13903
     18       2.00000          -0.438254          -11.92551
     19       2.00000          -0.435834          -11.85965
     20       2.00000          -0.417259          -11.35418
     21       1.00000          -0.106082           -2.88663
     22       0.00000          -0.076564           -2.08340
     23       0.00000          -0.067364           -1.83308
     24       0.00000          -0.048780           -1.32738
     25       0.00000          -0.026423           -0.71902
     26       0.00000          -0.015634           -0.42542
     27       0.00000          -0.000931           -0.02534
     28       0.00000           0.043987            1.19695
     29       0.00000           0.055456            1.50905
     30       0.00000           0.064301            1.74971
     31       0.00000           0.070262            1.91192
     32       0.00000           0.088509            2.40846
     33       0.00000           0.095818            2.60734
     34       0.00000           0.096893            2.63659
     35       0.00000           0.102362            2.78541
     36       0.00000           0.109623            2.98298
     37       0.00000           0.113813            3.09700
     38       0.00000           0.123887            3.37115
     39       0.00000           0.132786            3.61329
     40       0.00000           0.137681            3.74650
     41       0.00000           0.168069            4.57339
     42       0.00000           0.170180            4.63083
     43       0.00000           0.189784            5.16427
     44       0.00000           0.209937            5.71269
     45       0.00000           0.221398            6.02456
     46       0.00000           0.242451            6.59743
     47       0.00000           0.248882            6.77241
     48       0.00000           0.263217            7.16249
     49       0.00000           0.296262            8.06171
     50       0.00000           0.299464            8.14883
     51       0.00000           0.340150            9.25594
     52       0.00000           0.342670            9.32452
     53       0.00000           0.361204            9.82886
     54       0.00000           0.366351            9.96891
     55       0.00000           0.368947           10.03957
     56       0.00000           0.376306           10.23980
     57       0.00000           0.385911           10.50118
     58       0.00000           0.390991           10.63940
     59       0.00000           0.398313           10.83864
     60       0.00000           0.432519           11.76943
     61       0.00000           0.436656           11.88200
     62       0.00000           0.457078           12.43774
     63       0.00000           0.468109           12.73790
     64       0.00000           0.495268           13.47692
     65       0.00000           0.526355           14.32284
     66       0.00000           0.541770           14.74230
     67       0.00000           0.558080           15.18612
     68       0.00000           0.583467           15.87694
     69       0.00000           0.613170           16.68521
     70       0.00000           0.629189           17.12110
     71       0.00000           0.704388           19.16738
     72       0.00000           0.732080           19.92090
     73       0.00000           0.736682           20.04614

  Highest occupied state (VBM) at    -11.35418433 eV
  | Occupation number:      2.00000000

  Lowest unoccupied state (CBM) at    -2.88663408 eV
  | Occupation number:      1.00000000

  Overall HOMO-LUMO gap:      8.46755025 eV.
  Calculating total energy contributions from superposition of free atom densities.

  Total energy components:
  | Sum of eigenvalues            :        -173.93827544 Ha       -4733.10129219 eV
  | XC energy correction          :         -36.77855754 Ha       -1000.79547047 eV
  | XC potential correction       :          47.00088161 Ha        1278.95906137 eV
  | Free-atom electrostatic energy:        -143.18817445 Ha       -3896.34847082 eV
  | Hartree energy correction     :           0.00000000 Ha           0.00000000 eV
  | van der Waals energy corr.    :           0.00000000 Ha           0.00000000 eV
  | Entropy correction            :          -0.00010367 Ha          -0.00282095 eV
  | ---------------------------
  | Total energy                  :        -306.90412581 Ha       -8351.28617211 eV
  | Total energy, T -> 0          :        -306.90422948 Ha       -8351.28899306 eV  <-- do not rely on this value for anything but (periodic) metals
  | Electronic free energy        :        -306.90433315 Ha       -8351.29181400 eV

  Derived energy quantities:
  | Kinetic energy                :         303.96109781 Ha        8271.20230568 eV
  | Electrostatic energy          :        -574.08666609 Ha      -15621.69300731 eV
  | Energy correction for multipole
  | error in Hartree potential    :           0.00000000 Ha           0.00000000 eV
  | Sum of eigenvalues per atom                           :        -364.08471478 eV
  | Total energy (T->0) per atom                          :        -642.40684562 eV  <-- do not rely on this value for anything but (periodic) metals
  | Electronic free energy per atom                       :        -642.40706262 eV
  Initialize hartree_potential_storage
  Max. number of atoms included in rho_multipole:           13

  End scf initialization - timings             :  max(cpu_time)    wall_clock(cpu1)
  | Time for scf. initialization               :        1.307 s           1.306 s
  | Boundary condition initialization          :        0.000 s           0.000 s
  | Integration                                :        0.864 s           0.863 s
  | Solution of K.-S. eqns.                    :        0.135 s           0.136 s
  | Grid partitioning                          :        0.140 s           0.140 s
  | Preloading free-atom quantities on grid    :        0.013 s           0.013 s
  | Free-atom superposition energy             :        0.051 s           0.051 s
  | Total energy evaluation                    :        0.001 s           0.001 s
------------------------------------------------------------

------------------------------------------------------------
          Begin self-consistency iteration #    1

  Date     :  20150727, Time     :  125711.545
------------------------------------------------------------
  Evaluating new KS density.
  Integration grid: deviation in total charge (<rho> - N_e) =  -8.824799E-10
  Pulay mixing of updated and previous charge densities.

  Evaluating partitioned Hartree potential by multipole expansion.
  | Analytical far-field extrapolation by fixed multipoles:
  | Hartree multipole sum: apparent total charge =  -0.128942E-05
  Summing up the Hartree potential.
  Time summed over all CPUs for potential: real work        1.917 s, elapsed        1.927 s
  | RMS charge density error from multipole expansion :   0.143167E-02

  Integrating Hamiltonian matrix: batch-based integration.
  Time summed over all CPUs for integration: real work        4.405 s, elapsed        4.508 s

  Updating Kohn-Sham eigenvalues, eigenvectors, occupation numbers, and Fermi level.
  Solving generalized eigenproblem
  Updating Kohn-Sham eigenvalues and eigenfunctions.
  Solving real generalised eigenvalue problem by standard LAPACK (fast)
  Determining occupation numbers for Kohn-Sham eigenstates.
  | Chemical potential (Fermi level) in eV                 : -.26858614E+01
  | Error in electron count due to remaining E_F inaccuracy: 0.11700223E-08
  | Maximum occupation number of highest empty state:  0.00E+00

  Writing Kohn-Sham eigenvalues.

  State    Occupation    Eigenvalue [Ha]    Eigenvalue [eV]
      1       2.00000         -19.009823         -517.28359
      2       2.00000         -18.980795         -516.49372
      3       2.00000         -18.975977         -516.36261
      4       2.00000         -18.944925         -515.51765
      5       2.00000          -1.095636          -29.81378
      6       2.00000          -1.065201          -28.98560
      7       2.00000          -1.049868          -28.56837
      8       2.00000          -1.015356          -27.62923
      9       2.00000          -0.615688          -16.75372
     10       2.00000          -0.598817          -16.29465
     11       2.00000          -0.580672          -15.80089
     12       2.00000          -0.574936          -15.64481
     13       2.00000          -0.564258          -15.35425
     14       2.00000          -0.485309          -13.20593
     15       2.00000          -0.482010          -13.11615
     16       2.00000          -0.457770          -12.45654
     17       2.00000          -0.441630          -12.01737
     18       2.00000          -0.402375          -10.94919
     19       2.00000          -0.400919          -10.90956
     20       2.00000          -0.371495          -10.10889
     21       1.00000          -0.098704           -2.68586
     22       0.00000          -0.069029           -1.87838
     23       0.00000          -0.060395           -1.64342
     24       0.00000          -0.040072           -1.09042
     25       0.00000          -0.018773           -0.51084
     26       0.00000          -0.008804           -0.23957
     27       0.00000           0.005874            0.15983
     28       0.00000           0.049370            1.34342
     29       0.00000           0.062903            1.71167
     30       0.00000           0.068859            1.87374
     31       0.00000           0.077100            2.09799
     32       0.00000           0.095596            2.60131
     33       0.00000           0.103730            2.82264
     34       0.00000           0.105971            2.88361
     35       0.00000           0.110483            3.00640
     36       0.00000           0.115573            3.14491
     37       0.00000           0.119627            3.25521
     38       0.00000           0.138647            3.77277
     39       0.00000           0.144005            3.91856
     40       0.00000           0.148141            4.03112
     41       0.00000           0.175219            4.76796
     42       0.00000           0.178784            4.86496
     43       0.00000           0.198828            5.41039
     44       0.00000           0.218874            5.95588
     45       0.00000           0.228245            6.21085
     46       0.00000           0.249206            6.78123
     47       0.00000           0.255548            6.95381
     48       0.00000           0.270198            7.35247
     49       0.00000           0.303015            8.24547
     50       0.00000           0.305024            8.30011
     51       0.00000           0.347554            9.45743
     52       0.00000           0.350766            9.54484
     53       0.00000           0.367793           10.00817
     54       0.00000           0.374373           10.18720
     55       0.00000           0.378238           10.29238
     56       0.00000           0.384114           10.45227
     57       0.00000           0.394098           10.72395
     58       0.00000           0.399033           10.85825
     59       0.00000           0.405095           11.02320
     60       0.00000           0.440093           11.97555
     61       0.00000           0.443198           12.06004
     62       0.00000           0.465783           12.67461
     63       0.00000           0.474697           12.91716
     64       0.00000           0.503102           13.69011
     65       0.00000           0.536789           14.60676
     66       0.00000           0.553157           15.05217
     67       0.00000           0.567493           15.44227
     68       0.00000           0.594982           16.19028
     69       0.00000           0.621254           16.90518
     70       0.00000           0.638270           17.36822
     71       0.00000           0.716213           19.48916
     72       0.00000           0.741124           20.16702
     73       0.00000           0.747490           20.34023

  Highest occupied state (VBM) at     -2.68586145 eV
  | Occupation number:      1.00000000

  Lowest unoccupied state (CBM) at    -1.87838099 eV
  | Occupation number:      0.00000000

  Overall HOMO-LUMO gap:      0.80748045 eV.

  Total energy components:
  | Sum of eigenvalues            :        -172.32562659 Ha       -4689.21888425 eV
  | XC energy correction          :         -36.94985539 Ha       -1005.45672211 eV
  | XC potential correction       :          47.22489979 Ha        1285.05490610 eV
  | Free-atom electrostatic energy:        -143.18817445 Ha       -3896.34847082 eV
  | Hartree energy correction     :          -1.57088415 Ha         -42.74593262 eV
  | van der Waals energy corr.    :           0.00000000 Ha           0.00000000 eV
  | Entropy correction            :          -0.00010367 Ha          -0.00282095 eV
  | ---------------------------
  | Total energy                  :        -306.80964078 Ha       -8348.71510370 eV
  | Total energy, T -> 0          :        -306.80974445 Ha       -8348.71792465 eV  <-- do not rely on this value for anything but (periodic) metals
  | Electronic free energy        :        -306.80984812 Ha       -8348.72074559 eV

  Derived energy quantities:
  | Kinetic energy                :         304.99801810 Ha        8299.41834228 eV
  | Electrostatic energy          :        -574.85780350 Ha      -15642.67672386 eV
  | Energy correction for multipole
  | error in Hartree potential    :           0.00026188 Ha           0.00712625 eV
  | Sum of eigenvalues per atom                           :        -360.70914494 eV
  | Total energy (T->0) per atom                          :        -642.20907113 eV  <-- do not rely on this value for anything but (periodic) metals
  | Electronic free energy per atom                       :        -642.20928812 eV

  Self-consistency convergence accuracy:
  | Change of charge density      : 0.5536E+00
  | Change of sum of eigenvalues  : 0.4388E+02 eV
  | Change of total energy        : 0.2571E+01 eV

  End self-consistency iteration #     1       :  max(cpu_time)    wall_clock(cpu1)
  | Time for this iteration                    :        1.276 s           1.275 s
  | Charge density update                      :        0.422 s           0.421 s
  | Density mixing                             :        0.003 s           0.003 s
  | Hartree multipole update                   :        0.005 s           0.005 s
  | Hartree multipole summation                :        0.241 s           0.242 s
  | Integration                                :        0.565 s           0.564 s
  | Solution of K.-S. eqns.                    :        0.036 s           0.036 s
  | Total energy evaluation                    :        0.001 s           0.001 s
------------------------------------------------------------

------------------------------------------------------------
          Begin self-consistency iteration #    2

  Date     :  20150727, Time     :  125712.821
------------------------------------------------------------
  Evaluating new KS density.
  Integration grid: deviation in total charge (<rho> - N_e) =   1.170022E-09
  Pulay mixing of updated and previous charge densities.

  Evaluating partitioned Hartree potential by multipole expansion.
  | Analytical far-field extrapolation by fixed multipoles:
  | Hartree multipole sum: apparent total charge =  -0.439721E-05
  Summing up the Hartree potential.
  Time summed over all CPUs for potential: real work        1.917 s, elapsed        1.926 s
  | RMS charge density error from multipole expansion :   0.571446E-02

  Integrating Hamiltonian matrix: batch-based integration.
  Time summed over all CPUs for integration: real work        4.390 s, elapsed        4.473 s

  Updating Kohn-Sham eigenvalues, eigenvectors, occupation numbers, and Fermi level.
  Solving generalized eigenproblem
  Updating Kohn-Sham eigenvalues and eigenfunctions.
  Solving real generalised eigenvalue problem by standard LAPACK (fast)
  Determining occupation numbers for Kohn-Sham eigenstates.
  | Chemical potential (Fermi level) in eV                 : -.22207252E+01
  | Error in electron count due to remaining E_F inaccuracy: 0.00000000E+00
  | Maximum occupation number of highest empty state:  0.00E+00

  Highest occupied state (VBM) at     -2.22072516 eV
  | Occupation number:      1.00000000

  Lowest unoccupied state (CBM) at    -2.22072516 eV
  | Occupation number:      1.00000000

  Overall HOMO-LUMO gap:      0.00000000 eV.

  Total energy components:
  | Sum of eigenvalues            :        -168.57177475 Ha       -4587.07137846 eV
  | XC energy correction          :         -37.36724319 Ha       -1016.81442218 eV
  | XC potential correction       :          47.76966266 Ha        1299.87865803 eV
  | Free-atom electrostatic energy:        -143.18817445 Ha       -3896.34847082 eV
  | Hartree energy correction     :          -5.34717281 Ha        -145.50397523 eV
  | van der Waals energy corr.    :           0.00000000 Ha           0.00000000 eV
  | Entropy correction            :          -0.00010367 Ha          -0.00282095 eV
  | ---------------------------
  | Total energy                  :        -306.70470254 Ha       -8345.85958865 eV
  | Total energy, T -> 0          :        -306.70480620 Ha       -8345.86240960 eV  <-- do not rely on this value for anything but (periodic) metals
  | Electronic free energy        :        -306.70490987 Ha       -8345.86523055 eV

  Derived energy quantities:
  | Kinetic energy                :         307.07978077 Ha        8356.06598681 eV
  | Electrostatic energy          :        -576.41724012 Ha      -15685.11115328 eV
  | Energy correction for multipole
  | error in Hartree potential    :           0.00035809 Ha           0.00974403 eV
  | Sum of eigenvalues per atom                           :        -352.85164450 eV
  | Total energy (T->0) per atom                          :        -641.98941612 eV  <-- do not rely on this value for anything but (periodic) metals
  | Electronic free energy per atom                       :        -641.98963312 eV

  Self-consistency convergence accuracy:
  | Change of charge density      : 0.4194E+00
  | Change of sum of eigenvalues  : 0.1021E+03 eV
  | Change of total energy        : 0.2856E+01 eV

  End self-consistency iteration #     2       :  max(cpu_time)    wall_clock(cpu1)
  | Time for this iteration                    :        1.262 s           1.261 s
  | Charge density update                      :        0.414 s           0.413 s
  | Density mixing                             :        0.004 s           0.004 s
  | Hartree multipole update                   :        0.005 s           0.005 s
  | Hartree multipole summation                :        0.242 s           0.242 s
  | Integration                                :        0.560 s           0.560 s
  | Solution of K.-S. eqns.                    :        0.036 s           0.036 s
  | Total energy evaluation                    :        0.000 s           0.001 s
------------------------------------------------------------

------------------------------------------------------------
          Begin self-consistency iteration #    3

  Date     :  20150727, Time     :  125714.083
------------------------------------------------------------
  Evaluating new KS density.
  Integration grid: deviation in total charge (<rho> - N_e) =   0.000000E+00
  Pulay mixing of updated and previous charge densities.

  Evaluating partitioned Hartree potential by multipole expansion.
  | Analytical far-field extrapolation by fixed multipoles:
  | Hartree multipole sum: apparent total charge =  -0.574696E-05
  Summing up the Hartree potential.
  Time summed over all CPUs for potential: real work        1.916 s, elapsed        1.927 s
  | RMS charge density error from multipole expansion :   0.120108E-01

  Integrating Hamiltonian matrix: batch-based integration.
  Time summed over all CPUs for integration: real work        4.391 s, elapsed        4.467 s

  Updating Kohn-Sham eigenvalues, eigenvectors, occupation numbers, and Fermi level.
  Solving generalized eigenproblem
  Updating Kohn-Sham eigenvalues and eigenfunctions.
  Solving real generalised eigenvalue problem by standard LAPACK (fast)
  Determining occupation numbers for Kohn-Sham eigenstates.
  | Chemical potential (Fermi level) in eV                 : -.22587742E+01
  | Error in electron count due to remaining E_F inaccuracy: -.69491080E-11
  | Maximum occupation number of highest empty state:  0.00E+00

  Highest occupied state (VBM) at     -6.79839266 eV
  | Occupation number:      2.00000000

  Lowest unoccupied state (CBM) at    -2.25877423 eV
  | Occupation number:      1.00000000

  Overall HOMO-LUMO gap:      4.53961843 eV.

  Total energy components:
  | Sum of eigenvalues            :        -168.83264818 Ha       -4594.17010589 eV
  | XC energy correction          :         -37.34998954 Ha       -1016.34492656 eV
  | XC potential correction       :          47.74061609 Ha        1299.08826080 eV
  | Free-atom electrostatic energy:        -143.18817445 Ha       -3896.34847082 eV
  | Hartree energy correction     :          -5.07253096 Ha        -138.03059030 eV
  | van der Waals energy corr.    :           0.00000000 Ha           0.00000000 eV
  | Entropy correction            :          -0.00010367 Ha          -0.00282095 eV
  | ---------------------------
  | Total energy                  :        -306.70272704 Ha       -8345.80583277 eV
  | Total energy, T -> 0          :        -306.70283071 Ha       -8345.80865372 eV  <-- do not rely on this value for anything but (periodic) metals
  | Electronic free energy        :        -306.70293438 Ha       -8345.81147467 eV

  Derived energy quantities:
  | Kinetic energy                :         305.58616185 Ha        8315.42254786 eV
  | Electrostatic energy          :        -574.93889934 Ha      -15644.88345407 eV
  | Energy correction for multipole
  | error in Hartree potential    :          -0.00277260 Ha          -0.07544632 eV
  | Sum of eigenvalues per atom                           :        -353.39770045 eV
  | Total energy (T->0) per atom                          :        -641.98528106 eV  <-- do not rely on this value for anything but (periodic) metals
  | Electronic free energy per atom                       :        -641.98549805 eV

  Self-consistency convergence accuracy:
  | Change of charge density      : 0.2117E+00
  | Change of sum of eigenvalues  : -.7099E+01 eV
  | Change of total energy        : 0.5376E-01 eV

  End self-consistency iteration #     3       :  max(cpu_time)    wall_clock(cpu1)
  | Time for this iteration                    :        1.261 s           1.261 s
  | Charge density update                      :        0.412 s           0.412 s
  | Density mixing                             :        0.006 s           0.006 s
  | Hartree multipole update                   :        0.004 s           0.004 s
  | Hartree multipole summation                :        0.241 s           0.242 s
  | Integration                                :        0.560 s           0.560 s
  | Solution of K.-S. eqns.                    :        0.036 s           0.036 s
  | Total energy evaluation                    :        0.001 s           0.001 s
------------------------------------------------------------

------------------------------------------------------------
          Begin self-consistency iteration #    4

  Date     :  20150727, Time     :  125715.345
------------------------------------------------------------
  Evaluating new KS density.
  Integration grid: deviation in total charge (<rho> - N_e) =  -6.934897E-12
  Pulay mixing of updated and previous charge densities.

  Evaluating partitioned Hartree potential by multipole expansion.
  | Analytical far-field extrapolation by fixed multipoles:
  | Hartree multipole sum: apparent total charge =  -0.717078E-05
  Summing up the Hartree potential.
  Time summed over all CPUs for potential: real work        1.916 s, elapsed        1.926 s
  | RMS charge density error from multipole expansion :   0.152846E-01

  Integrating Hamiltonian matrix: batch-based integration.
  Time summed over all CPUs for integration: real work        4.379 s, elapsed        4.456 s

  Updating Kohn-Sham eigenvalues, eigenvectors, occupation numbers, and Fermi level.
  Solving generalized eigenproblem
  Updating Kohn-Sham eigenvalues and eigenfunctions.
  Solving real generalised eigenvalue problem by standard LAPACK (fast)
  Determining occupation numbers for Kohn-Sham eigenstates.
  | Chemical potential (Fermi level) in eV                 : -.21265164E+01
  | Error in electron count due to remaining E_F inaccuracy: -.85265128E-13
  | Maximum occupation number of highest empty state:  0.00E+00

  Highest occupied state (VBM) at     -5.84329990 eV
  | Occupation number:      2.00000000

  Lowest unoccupied state (CBM) at    -2.12651639 eV
  | Occupation number:      1.00000000

  Overall HOMO-LUMO gap:      3.71678351 eV.

  Total energy components:
  | Sum of eigenvalues            :        -167.80655177 Ha       -4566.24860192 eV
  | XC energy correction          :         -37.48231483 Ha       -1019.94568082 eV
  | XC potential correction       :          47.91157834 Ha        1303.74038023 eV
  | Free-atom electrostatic energy:        -143.18817445 Ha       -3896.34847082 eV
  | Hartree energy correction     :          -6.13227519 Ha        -166.86769806 eV
  | van der Waals energy corr.    :           0.00000000 Ha           0.00000000 eV
  | Entropy correction            :          -0.00010367 Ha          -0.00282095 eV
  | ---------------------------
  | Total energy                  :        -306.69773790 Ha       -8345.67007138 eV
  | Total energy, T -> 0          :        -306.69784157 Ha       -8345.67289233 eV  <-- do not rely on this value for anything but (periodic) metals
  | Electronic free energy        :        -306.69794524 Ha       -8345.67571328 eV

  Derived energy quantities:
  | Kinetic energy                :         305.71365359 Ha        8318.89177468 eV
  | Electrostatic energy          :        -574.92907666 Ha      -15644.61616525 eV
  | Energy correction for multipole
  | error in Hartree potential    :          -0.00377377 Ha          -0.10268954 eV
  | Sum of eigenvalues per atom                           :        -351.24989246 eV
  | Total energy (T->0) per atom                          :        -641.97483787 eV  <-- do not rely on this value for anything but (periodic) metals
  | Electronic free energy per atom                       :        -641.97505487 eV

  Self-consistency convergence accuracy:
  | Change of charge density      : 0.9965E-01
  | Change of sum of eigenvalues  : 0.2792E+02 eV
  | Change of total energy        : 0.1358E+00 eV

  End self-consistency iteration #     4       :  max(cpu_time)    wall_clock(cpu1)
  | Time for this iteration                    :        1.262 s           1.261 s
  | Charge density update                      :        0.413 s           0.412 s
  | Density mixing                             :        0.007 s           0.007 s
  | Hartree multipole update                   :        0.005 s           0.004 s
  | Hartree multipole summation                :        0.241 s           0.242 s
  | Integration                                :        0.559 s           0.558 s
  | Solution of K.-S. eqns.                    :        0.035 s           0.036 s
  | Total energy evaluation                    :        0.000 s           0.001 s
------------------------------------------------------------

------------------------------------------------------------
          Begin self-consistency iteration #    5

  Date     :  20150727, Time     :  125716.606
------------------------------------------------------------
  Evaluating new KS density.
  Integration grid: deviation in total charge (<rho> - N_e) =  -6.394885E-14
  Pulay mixing of updated and previous charge densities.

  Evaluating partitioned Hartree potential by multipole expansion.
  | Analytical far-field extrapolation by fixed multipoles:
  | Hartree multipole sum: apparent total charge =  -0.718581E-05
  Summing up the Hartree potential.
  Time summed over all CPUs for potential: real work        1.915 s, elapsed        1.926 s
  | RMS charge density error from multipole expansion :   0.154199E-01

  Integrating Hamiltonian matrix: batch-based integration.
  Time summed over all CPUs for integration: real work        4.375 s, elapsed        4.464 s

  Updating Kohn-Sham eigenvalues, eigenvectors, occupation numbers, and Fermi level.
  Solving generalized eigenproblem
  Updating Kohn-Sham eigenvalues and eigenfunctions.
  Solving real generalised eigenvalue problem by standard LAPACK (fast)
  Determining occupation numbers for Kohn-Sham eigenstates.
  | Chemical potential (Fermi level) in eV                 : -.20978296E+01
  | Error in electron count due to remaining E_F inaccuracy: -.22168933E-11
  | Maximum occupation number of highest empty state:  0.00E+00

  Highest occupied state (VBM) at     -5.88702390 eV
  | Occupation number:      2.00000000

  Lowest unoccupied state (CBM) at    -2.09782957 eV
  | Occupation number:      1.00000000

  Overall HOMO-LUMO gap:      3.78919433 eV.

  Total energy components:
  | Sum of eigenvalues            :        -167.81732598 Ha       -4566.54178290 eV
  | XC energy correction          :         -37.48206823 Ha       -1019.93897049 eV
  | XC potential correction       :          47.91104160 Ha        1303.72577468 eV
  | Free-atom electrostatic energy:        -143.18817445 Ha       -3896.34847082 eV
  | Hartree energy correction     :          -6.12105687 Ha        -166.56243204 eV
  | van der Waals energy corr.    :           0.00000000 Ha           0.00000000 eV
  | Entropy correction            :          -0.00010367 Ha          -0.00282095 eV
  | ---------------------------
  | Total energy                  :        -306.69758393 Ha       -8345.66588156 eV
  | Total energy, T -> 0          :        -306.69768760 Ha       -8345.66870251 eV  <-- do not rely on this value for anything but (periodic) metals
  | Electronic free energy        :        -306.69779127 Ha       -8345.67152346 eV

  Derived energy quantities:
  | Kinetic energy                :         305.73965436 Ha        8319.59929182 eV
  | Electrostatic energy          :        -574.95517006 Ha      -15645.32620289 eV
  | Energy correction for multipole
  | error in Hartree potential    :          -0.00380164 Ha          -0.10344794 eV
  | Sum of eigenvalues per atom                           :        -351.27244484 eV
  | Total energy (T->0) per atom                          :        -641.97451558 eV  <-- do not rely on this value for anything but (periodic) metals
  | Electronic free energy per atom                       :        -641.97473257 eV

  Self-consistency convergence accuracy:
  | Change of charge density      : 0.1574E-01
  | Change of sum of eigenvalues  : -.2932E+00 eV
  | Change of total energy        : 0.4190E-02 eV

  End self-consistency iteration #     5       :  max(cpu_time)    wall_clock(cpu1)
  | Time for this iteration                    :        1.264 s           1.264 s
  | Charge density update                      :        0.413 s           0.413 s
  | Density mixing                             :        0.008 s           0.008 s
  | Hartree multipole update                   :        0.005 s           0.004 s
  | Hartree multipole summation                :        0.241 s           0.242 s
  | Integration                                :        0.559 s           0.559 s
  | Solution of K.-S. eqns.                    :        0.036 s           0.036 s
  | Total energy evaluation                    :        0.001 s           0.001 s
------------------------------------------------------------

------------------------------------------------------------
          Begin self-consistency iteration #    6

  Date     :  20150727, Time     :  125717.870
------------------------------------------------------------
  Evaluating new KS density.
  Integration grid: deviation in total charge (<rho> - N_e) =  -2.188472E-12
  Pulay mixing of updated and previous charge densities.

  Evaluating partitioned Hartree potential by multipole expansion.
  | Analytical far-field extrapolation by fixed multipoles:
  | Hartree multipole sum: apparent total charge =  -0.719572E-05
  Summing up the Hartree potential.
  Time summed over all CPUs for potential: real work        1.916 s, elapsed        1.926 s
  | RMS charge density error from multipole expansion :   0.155318E-01

  Integrating Hamiltonian matrix: batch-based integration.
  Time summed over all CPUs for integration: real work        4.373 s, elapsed        4.455 s

  Updating Kohn-Sham eigenvalues, eigenvectors, occupation numbers, and Fermi level.
  Solving generalized eigenproblem
  Updating Kohn-Sham eigenvalues and eigenfunctions.
  Solving real generalised eigenvalue problem by standard LAPACK (fast)
  Determining occupation numbers for Kohn-Sham eigenstates.
  | Chemical potential (Fermi level) in eV                 : -.20962170E+01
  | Error in electron count due to remaining E_F inaccuracy: -.57056582E-10
  | Maximum occupation number of highest empty state:  0.00E+00

  Highest occupied state (VBM) at     -5.92297153 eV
  | Occupation number:      2.00000000

  Lowest unoccupied state (CBM) at    -2.09621701 eV
  | Occupation number:      1.00000000

  Overall HOMO-LUMO gap:      3.82675452 eV.

  Total energy components:
  | Sum of eigenvalues            :        -167.84865463 Ha       -4567.39427887 eV
  | XC energy correction          :         -37.47937043 Ha       -1019.86555969 eV
  | XC potential correction       :          47.90732015 Ha        1303.62450892 eV
  | Free-atom electrostatic energy:        -143.18817445 Ha       -3896.34847082 eV
  | Hartree energy correction     :          -6.08868377 Ha        -165.68151509 eV
  | van der Waals energy corr.    :           0.00000000 Ha           0.00000000 eV
  | Entropy correction            :          -0.00010367 Ha          -0.00282095 eV
  | ---------------------------
  | Total energy                  :        -306.69756313 Ha       -8345.66531554 eV
  | Total energy, T -> 0          :        -306.69766680 Ha       -8345.66813649 eV  <-- do not rely on this value for anything but (periodic) metals
  | Electronic free energy        :        -306.69777047 Ha       -8345.67095744 eV

  Derived energy quantities:
  | Kinetic energy                :         305.73285986 Ha        8319.41440388 eV
  | Electrostatic energy          :        -574.95105255 Ha      -15645.21415974 eV
  | Energy correction for multipole
  | error in Hartree potential    :          -0.00385133 Ha          -0.10480004 eV
  | Sum of eigenvalues per atom                           :        -351.33802145 eV
  | Total energy (T->0) per atom                          :        -641.97447204 eV  <-- do not rely on this value for anything but (periodic) metals
  | Electronic free energy per atom                       :        -641.97468903 eV

  Self-consistency convergence accuracy:
  | Change of charge density      : 0.9356E-02
  | Change of sum of eigenvalues  : -.8525E+00 eV
  | Change of total energy        : 0.5660E-03 eV

  End self-consistency iteration #     6       :  max(cpu_time)    wall_clock(cpu1)
  | Time for this iteration                    :        1.265 s           1.264 s
  | Charge density update                      :        0.414 s           0.413 s
  | Density mixing                             :        0.009 s           0.009 s
  | Hartree multipole update                   :        0.004 s           0.005 s
  | Hartree multipole summation                :        0.241 s           0.241 s
  | Integration                                :        0.558 s           0.558 s
  | Solution of K.-S. eqns.                    :        0.036 s           0.035 s
  | Total energy evaluation                    :        0.000 s           0.001 s
------------------------------------------------------------

------------------------------------------------------------
          Begin self-consistency iteration #    7

  Date     :  20150727, Time     :  125719.134
------------------------------------------------------------
  Evaluating new KS density.
  Integration grid: deviation in total charge (<rho> - N_e) =  -5.705658E-11
  Pulay mixing of updated and previous charge densities.

  Evaluating partitioned Hartree potential by multipole expansion.
  | Analytical far-field extrapolation by fixed multipoles:
  | Hartree multipole sum: apparent total charge =  -0.716534E-05
  Summing up the Hartree potential.
  Time summed over all CPUs for potential: real work        1.916 s, elapsed        1.926 s
  | RMS charge density error from multipole expansion :   0.156343E-01

  Integrating Hamiltonian matrix: batch-based integration.
  Time summed over all CPUs for integration: real work        4.370 s, elapsed        4.451 s

  Updating Kohn-Sham eigenvalues, eigenvectors, occupation numbers, and Fermi level.
  Solving generalized eigenproblem
  Updating Kohn-Sham eigenvalues and eigenfunctions.
  Solving real generalised eigenvalue problem by standard LAPACK (fast)
  Determining occupation numbers for Kohn-Sham eigenstates.
  | Chemical potential (Fermi level) in eV                 : -.21077630E+01
  | Error in electron count due to remaining E_F inaccuracy: 0.00000000E+00
  | Maximum occupation number of highest empty state:  0.00E+00

  Highest occupied state (VBM) at     -2.10776296 eV
  | Occupation number:      1.00000000

  Lowest unoccupied state (CBM) at    -2.10776296 eV
  | Occupation number:      1.00000000

  Overall HOMO-LUMO gap:      0.00000000 eV.

  Total energy components:
  | Sum of eigenvalues            :        -167.89534779 Ha       -4568.66486444 eV
  | XC energy correction          :         -37.47544283 Ha       -1019.75868406 eV
  | XC potential correction       :          47.90189896 Ha        1303.47699095 eV
  | Free-atom electrostatic energy:        -143.18817445 Ha       -3896.34847082 eV
  | Hartree energy correction     :          -6.04047672 Ha        -164.36973463 eV
  | van der Waals energy corr.    :           0.00000000 Ha           0.00000000 eV
  | Entropy correction            :          -0.00010367 Ha          -0.00282095 eV
  | ---------------------------
  | Total energy                  :        -306.69754282 Ha       -8345.66476301 eV
  | Total energy, T -> 0          :        -306.69764649 Ha       -8345.66758395 eV  <-- do not rely on this value for anything but (periodic) metals
  | Electronic free energy        :        -306.69775016 Ha       -8345.67040490 eV

  Derived energy quantities:
  | Kinetic energy                :         305.75923096 Ha        8320.13199811 eV
  | Electrostatic energy          :        -574.98133096 Ha      -15646.03807705 eV
  | Energy correction for multipole
  | error in Hartree potential    :          -0.00389285 Ha          -0.10592989 eV
  | Sum of eigenvalues per atom                           :        -351.43575880 eV
  | Total energy (T->0) per atom                          :        -641.97442953 eV  <-- do not rely on this value for anything but (periodic) metals
  | Electronic free energy per atom                       :        -641.97464653 eV

  Self-consistency convergence accuracy:
  | Change of charge density      : 0.6856E-02
  | Change of sum of eigenvalues  : -.1271E+01 eV
  | Change of total energy        : 0.5525E-03 eV

  End self-consistency iteration #     7       :  max(cpu_time)    wall_clock(cpu1)
  | Time for this iteration                    :        1.265 s           1.264 s
  | Charge density update                      :        0.414 s           0.413 s
  | Density mixing                             :        0.010 s           0.010 s
  | Hartree multipole update                   :        0.005 s           0.005 s
  | Hartree multipole summation                :        0.241 s           0.241 s
  | Integration                                :        0.558 s           0.558 s
  | Solution of K.-S. eqns.                    :        0.036 s           0.036 s
  | Total energy evaluation                    :        0.000 s           0.001 s
------------------------------------------------------------

------------------------------------------------------------
          Begin self-consistency iteration #    8

  Date     :  20150727, Time     :  125720.400
------------------------------------------------------------
  Evaluating new KS density.
  Integration grid: deviation in total charge (<rho> - N_e) =  -7.105427E-15
  Pulay mixing of updated and previous charge densities.

  Evaluating partitioned Hartree potential by multipole expansion.
  | Analytical far-field extrapolation by fixed multipoles:
  | Hartree multipole sum: apparent total charge =  -0.711089E-05
  Summing up the Hartree potential.
  Time summed over all CPUs for potential: real work        1.916 s, elapsed        1.926 s
  | RMS charge density error from multipole expansion :   0.156641E-01

  Integrating Hamiltonian matrix: batch-based integration.
  Time summed over all CPUs for integration: real work        4.370 s, elapsed        4.448 s

  Updating Kohn-Sham eigenvalues, eigenvectors, occupation numbers, and Fermi level.
  Solving generalized eigenproblem
  Updating Kohn-Sham eigenvalues and eigenfunctions.
  Solving real generalised eigenvalue problem by standard LAPACK (fast)
  Determining occupation numbers for Kohn-Sham eigenstates.
  | Chemical potential (Fermi level) in eV                 : -.21118929E+01
  | Error in electron count due to remaining E_F inaccuracy: 0.00000000E+00
  | Maximum occupation number of highest empty state:  0.00E+00

  Highest occupied state (VBM) at     -2.11189289 eV
  | Occupation number:      1.00000000

  Lowest unoccupied state (CBM) at    -2.11189289 eV
  | Occupation number:      1.00000000

  Overall HOMO-LUMO gap:      0.00000000 eV.

  Total energy components:
  | Sum of eigenvalues            :        -167.91696288 Ha       -4569.25304100 eV
  | XC energy correction          :         -37.47347786 Ha       -1019.70521470 eV
  | XC potential correction       :          47.89924039 Ha        1303.40464761 eV
  | Free-atom electrostatic energy:        -143.18817445 Ha       -3896.34847082 eV
  | Hartree energy correction     :          -6.01816488 Ha        -163.76259842 eV
  | van der Waals energy corr.    :           0.00000000 Ha           0.00000000 eV
  | Entropy correction            :          -0.00010367 Ha          -0.00282095 eV
  | ---------------------------
  | Total energy                  :        -306.69753968 Ha       -8345.66467731 eV
  | Total energy, T -> 0          :        -306.69764334 Ha       -8345.66749826 eV  <-- do not rely on this value for anything but (periodic) metals
  | Electronic free energy        :        -306.69774701 Ha       -8345.67031921 eV

  Derived energy quantities:
  | Kinetic energy                :         305.76659993 Ha        8320.33251803 eV
  | Electrostatic energy          :        -574.99066174 Ha      -15646.29198065 eV
  | Energy correction for multipole
  | error in Hartree potential    :          -0.00391423 Ha          -0.10651173 eV
  | Sum of eigenvalues per atom                           :        -351.48100315 eV
  | Total energy (T->0) per atom                          :        -641.97442294 eV  <-- do not rely on this value for anything but (periodic) metals
  | Electronic free energy per atom                       :        -641.97463994 eV

  Self-consistency convergence accuracy:
  | Change of charge density      : 0.2580E-02
  | Change of sum of eigenvalues  : -.5882E+00 eV
  | Change of total energy        : 0.8569E-04 eV

  End self-consistency iteration #     8       :  max(cpu_time)    wall_clock(cpu1)
  | Time for this iteration                    :        1.266 s           1.266 s
  | Charge density update                      :        0.414 s           0.414 s
  | Density mixing                             :        0.012 s           0.011 s
  | Hartree multipole update                   :        0.004 s           0.005 s
  | Hartree multipole summation                :        0.242 s           0.242 s
  | Integration                                :        0.557 s           0.557 s
  | Solution of K.-S. eqns.                    :        0.036 s           0.036 s
  | Total energy evaluation                    :        0.000 s           0.001 s
------------------------------------------------------------

------------------------------------------------------------
          Begin self-consistency iteration #    9

  Date     :  20150727, Time     :  125721.667
------------------------------------------------------------
  Evaluating new KS density.
  Integration grid: deviation in total charge (<rho> - N_e) =   2.131628E-14
  Pulay mixing of updated and previous charge densities.

  Evaluating partitioned Hartree potential by multipole expansion.
  | Analytical far-field extrapolation by fixed multipoles:
  | Hartree multipole sum: apparent total charge =  -0.710384E-05
  Summing up the Hartree potential.
  Time summed over all CPUs for potential: real work        1.916 s, elapsed        1.926 s
  | RMS charge density error from multipole expansion :   0.156575E-01

  Integrating Hamiltonian matrix: batch-based integration.
  Time summed over all CPUs for integration: real work        4.370 s, elapsed        4.458 s

  Updating Kohn-Sham eigenvalues, eigenvectors, occupation numbers, and Fermi level.
  Solving generalized eigenproblem
  Updating Kohn-Sham eigenvalues and eigenfunctions.
  Solving real generalised eigenvalue problem by standard LAPACK (fast)
  Determining occupation numbers for Kohn-Sham eigenstates.
  | Chemical potential (Fermi level) in eV                 : -.21140238E+01
  | Error in electron count due to remaining E_F inaccuracy: 0.00000000E+00
  | Maximum occupation number of highest empty state:  0.00E+00

  Highest occupied state (VBM) at     -2.11402379 eV
  | Occupation number:      1.00000000

  Lowest unoccupied state (CBM) at    -2.11402379 eV
  | Occupation number:      1.00000000

  Overall HOMO-LUMO gap:      0.00000000 eV.

  Total energy components:
  | Sum of eigenvalues            :        -167.91860247 Ha       -4569.29765665 eV
  | XC energy correction          :         -37.47331177 Ha       -1019.70069504 eV
  | XC potential correction       :          47.89902219 Ha        1303.39871000 eV
  | Free-atom electrostatic energy:        -143.18817445 Ha       -3896.34847082 eV
  | Hartree energy correction     :          -6.01647225 Ha        -163.71653983 eV
  | van der Waals energy corr.    :           0.00000000 Ha           0.00000000 eV
  | Entropy correction            :          -0.00010367 Ha          -0.00282095 eV
  | ---------------------------
  | Total energy                  :        -306.69753876 Ha       -8345.66465233 eV
  | Total energy, T -> 0          :        -306.69764243 Ha       -8345.66747328 eV  <-- do not rely on this value for anything but (periodic) metals
  | Electronic free energy        :        -306.69774609 Ha       -8345.67029423 eV

  Derived energy quantities:
  | Kinetic energy                :         305.76958734 Ha        8320.41380943 eV
  | Electrostatic energy          :        -574.99381433 Ha      -15646.37776673 eV
  | Energy correction for multipole
  | error in Hartree potential    :          -0.00391488 Ha          -0.10652922 eV
  | Sum of eigenvalues per atom                           :        -351.48443513 eV
  | Total energy (T->0) per atom                          :        -641.97442102 eV  <-- do not rely on this value for anything but (periodic) metals
  | Electronic free energy per atom                       :        -641.97463802 eV

  Self-consistency convergence accuracy:
  | Change of charge density      : 0.9163E-03
  | Change of sum of eigenvalues  : -.4462E-01 eV
  | Change of total energy        : 0.2498E-04 eV

  End self-consistency iteration #     9       :  max(cpu_time)    wall_clock(cpu1)
  | Time for this iteration                    :        1.270 s           1.269 s
  | Charge density update                      :        0.415 s           0.414 s
  | Density mixing                             :        0.013 s           0.013 s
  | Hartree multipole update                   :        0.004 s           0.005 s
  | Hartree multipole summation                :        0.242 s           0.241 s
  | Integration                                :        0.558 s           0.559 s
  | Solution of K.-S. eqns.                    :        0.036 s           0.036 s
  | Total energy evaluation                    :        0.001 s           0.001 s
------------------------------------------------------------

------------------------------------------------------------
          Begin self-consistency iteration #   10

  Date     :  20150727, Time     :  125722.937
------------------------------------------------------------
  Evaluating new KS density.
  Integration grid: deviation in total charge (<rho> - N_e) =   4.263256E-14
[...]
  | Electronic free energy        :        -306.69924912 Ha       -8345.71119379 eV

  Derived energy quantities:
  | Kinetic energy                :         305.77250502 Ha        8320.49320349 eV
  | Electrostatic energy          :        -574.99678688 Ha      -15646.45865416 eV
  | Energy correction for multipole
  | error in Hartree potential    :          -0.00393331 Ha          -0.10703087 eV
  | Sum of eigenvalues per atom                           :        -351.48749373 eV
  | Total energy (T->0) per atom                          :        -641.97756714 eV  <-- do not rely on this value for anything but (periodic) metals
  | Electronic free energy per atom                       :        -641.97778414 eV

  atomic forces [eV/Ang]:
  -----------------------
  atom #    1
   Hellmann-Feynman + Multipole  : -.394395E+01 -.701447E+01 -.777099E+01
   Pulay + GGA                   : 0.236423E+01 0.757706E+01 0.764445E+01
   Van der Waals               : -.734677E-02 0.628030E-03 0.259735E-02
   ----------------------------------------------------------------
   Total forces(   1)            : -.158707E+01 0.563222E+00 -.123941E+00
  atom #    2
   Hellmann-Feynman + Multipole  : 0.454085E+00 -.956630E+00 0.421740E+00
   Pulay + GGA                   : -.627451E-01 0.153230E+00 -.665794E-01
   Van der Waals               : -.280089E-02 0.256135E-02 0.413030E-02
   ----------------------------------------------------------------
   Total forces(   2)            : 0.388539E+00 -.800838E+00 0.359291E+00
  atom #    3
   Hellmann-Feynman + Multipole  : 0.826647E+00 0.107088E+00 0.407686E-02
   Pulay + GGA                   : 0.819163E-01 0.200975E-02 0.271000E-01
   Van der Waals               : -.110949E-02 0.156962E-02 0.251533E-02
   ----------------------------------------------------------------
   Total forces(   3)            : 0.907453E+00 0.110668E+00 0.336922E-01
  atom #    4
   Hellmann-Feynman + Multipole  : 0.126839E+00 0.112453E+00 -.354961E+00
   Pulay + GGA                   : -.478051E-01 -.556419E-01 0.125696E+00
   Van der Waals               : -.451485E-02 0.404716E-03 0.249602E-02
   ----------------------------------------------------------------
   Total forces(   4)            : 0.745195E-01 0.572162E-01 -.226769E+00
  atom #    5
   Hellmann-Feynman + Multipole  : -.476485E+01 0.182084E+01 -.988942E+01
   Pulay + GGA                   : 0.629780E+01 -.176756E+01 0.110022E+02
   Van der Waals               : 0.363336E-02 0.215221E-02 0.131524E-02
   ----------------------------------------------------------------
   Total forces(   5)            : 0.153658E+01 0.554243E-01 0.111413E+01
  atom #    6
   Hellmann-Feynman + Multipole  : -.207449E+00 -.591798E+00 -.865037E+00
   Pulay + GGA                   : 0.294474E-01 0.885954E-01 0.866976E-01
   Van der Waals               : 0.461674E-02 0.438206E-02 0.460367E-02
   ----------------------------------------------------------------
   Total forces(   6)            : -.173385E+00 -.498821E+00 -.773736E+00
  atom #    7
   Hellmann-Feynman + Multipole  : -.130771E+01 0.690827E+00 -.283787E+00
   Pulay + GGA                   : 0.116983E+00 -.749975E-01 0.151944E-01
   Van der Waals               : 0.753328E-03 0.611086E-03 0.836855E-03
   ----------------------------------------------------------------
   Total forces(   7)            : -.118998E+01 0.616441E+00 -.267756E+00
  atom #    8
   Hellmann-Feynman + Multipole  : 0.603855E+01 -.706706E+01 -.101515E+02
   Pulay + GGA                   : -.652219E+01 0.772644E+01 0.121063E+02
   Van der Waals               : 0.433317E-02 -.538888E-02 -.586802E-02
   ----------------------------------------------------------------
   Total forces(   8)            : -.479309E+00 0.653985E+00 0.194890E+01
  atom #    9
   Hellmann-Feynman + Multipole  : -.358938E+00 0.212558E+00 -.231980E+01
   Pulay + GGA                   : 0.149498E-01 0.711067E-02 0.133809E+00
   Van der Waals               : -.182978E-03 0.165761E-03 -.261061E-02
   ----------------------------------------------------------------
   Total forces(   9)            : -.344172E+00 0.219834E+00 -.218860E+01
  atom #   10
   Hellmann-Feynman + Multipole  : 0.135202E+01 -.144560E+01 0.411584E+00
   Pulay + GGA                   : -.512479E-01 0.690062E-01 0.256375E-02
   Van der Waals               : 0.159614E-02 -.328824E-02 -.389675E-02
   ----------------------------------------------------------------
   Total forces(  10)            : 0.130236E+01 -.137988E+01 0.410251E+00
  atom #   11
   Hellmann-Feynman + Multipole  : -.139540E+01 -.133452E+02 -.171678E+00
   Pulay + GGA                   : 0.220338E+01 0.138386E+02 -.178452E+01
   Van der Waals               : -.393293E-03 -.104027E-02 -.377625E-02
   ----------------------------------------------------------------
   Total forces(  11)            : 0.807589E+00 0.492413E+00 -.195997E+01
  atom #   12
   Hellmann-Feynman + Multipole  : -.309830E+00 0.601344E+00 0.342295E+00
   Pulay + GGA                   : -.858246E-01 0.930240E-01 0.745538E-01
   Van der Waals               : 0.113509E-02 -.132899E-02 0.162520E-03
   ----------------------------------------------------------------
   Total forces(  12)            : -.394519E+00 0.693039E+00 0.417011E+00
  atom #   13
   Hellmann-Feynman + Multipole  : -.894954E+00 -.848782E+00 0.138046E+01
   Pulay + GGA                   : 0.508279E-01 0.748967E-01 -.118846E+00
   Van der Waals               : 0.280439E-03 -.142846E-02 -.250566E-02
   ----------------------------------------------------------------
   Total forces(  13)            : -.843846E+00 -.775314E+00 0.125911E+01
  Timings for vdw_correction_hirshfeld (Tkatchenko-Scheffler 2009):
  | CPU time:        3.459 s, Wall clock time:        3.462 s.
  Removing unitary transformations (pure translations, rotations) from forces on atoms.
  Atomic forces before filtering:
  | Net force on center of mass :  0.476868E-02 0.739108E-02 0.162188E-02 eV/A
  | Net torque on center of mass:  -.139106E-01 0.510251E-02 0.714206E-03 eV
  Atomic forces after filtering:
  | Net force on center of mass :  0.178406E-15 -.267609E-15 0.178406E-15 eV/A
  | Net torque on center of mass:  -.122731E-14 -.302107E-14 -.755268E-15 eV
 
  Energy and forces in a compact form:
  | Total energy uncorrected      :         -0.834570555189177E+04 eV
  | Total energy corrected        :         -0.834570837283968E+04 eV  <-- do not rely on this value for anything but (periodic) metals
  | Electronic free energy        :         -0.834571119378760E+04 eV
  Total atomic forces (unitary forces cleaned) [eV/Ang]:
  |   1         -0.158737047415257E+01          0.563244369152033E+00         -0.124673172784165E+00
  |   2          0.388497127032599E+00         -0.800596925945327E+00          0.358731527251657E+00
  |   3          0.907192787174814E+00          0.110491770975507E+00          0.332687005644522E-01
  |   4          0.739823249232295E-01          0.569949535257173E-01         -0.227610033376182E+00
  |   5          0.153642854816868E+01          0.549916036516705E-01          0.111420598784280E+01
  |   6         -0.173599622693785E+00         -0.499516177991216E+00         -0.773445768500824E+00
  |   7         -0.119026978236719E+01          0.615815537637160E+00         -0.267684014837643E+00
  |   8         -0.480088594181415E+00          0.652783906838975E+00          0.194884898675143E+01
  |   9         -0.345193779375860E+00          0.218287070487321E+00         -0.218864505159075E+01
  |  10          0.130175278984904E+01         -0.138089869806035E+01          0.410260092825660E+00
  |  11          0.807309686773747E+00          0.491803677758350E+00         -0.195989918944399E+01
  |  12         -0.394778621086308E+00          0.692365183216798E+00          0.417199136051405E+00
  |  13         -0.843862390064992E+00         -0.775766271246640E+00          0.125944279924616E+01
 
  ------------------------------------ 
  Start decomposition of the XC Energy 
  ------------------------------------ 
  Hartree-Fock part   :          0.000000000 Ha              0.000000000 eV
  ------------------------------------ 
  X Energy            :        -36.148425278 Ha           -983.648699322 eV
  C Energy GGA        :         -1.324831521 Ha            -36.050499925 eV
  Total XC Energy     :        -37.473256800 Ha          -1019.699199247 eV
  LDA X and C from self-consistent density 
  X Energy LDA        :        -32.569643947 Ha           -886.265104468 eV
  C Energy LDA        :         -2.674196952 Ha            -72.768601482 eV
  ------------------------------------ 
  End decomposition of the XC Energy 
  ------------------------------------ 
  Performing Hirshfeld analysis of fragment charges and moments.
  ----------------------------------------------------------------------
  | Atom     1: O
  |   Hirshfeld charge        :     -0.12814779
  |   Free atom volume        :     23.95238533
  |   Hirshfeld volume        :     23.16896118
  |   Hirshfeld dipole vector :      0.02251993       0.02024378       0.02695656
  |   Hirshfeld dipole moment :      0.04054150
  |   Hirshfeld second moments:      0.04861201      -0.00232355      -0.01555807
  |                                 -0.00232355       0.00393096      -0.02518110
  |                                 -0.01555807      -0.02518110       0.04646093
  ----------------------------------------------------------------------
  | Atom     2: H
  |   Hirshfeld charge        :      0.01532245
  |   Free atom volume        :     10.44207651
  |   Hirshfeld volume        :     16.38516616
  |   Hirshfeld dipole vector :      0.04728842      -0.05424916       0.02992057
  |   Hirshfeld dipole moment :      0.07793848
  |   Hirshfeld second moments:     -0.08891757       0.02781246      -0.01732212
  |                                  0.02781246      -0.12646664       0.02451650
  |                                 -0.01732212       0.02451650      -0.06526628
  ----------------------------------------------------------------------
  | Atom     3: H
  |   Hirshfeld charge        :      0.09292744
  |   Free atom volume        :     10.44207651
  |   Hirshfeld volume        :     10.64624951
  |   Hirshfeld dipole vector :      0.02119669       0.00077925       0.00890294
  |   Hirshfeld dipole moment :      0.02300368
  |   Hirshfeld second moments:      0.01219776      -0.00888720      -0.00685003
  |                                 -0.00888720       0.02241426       0.00931253
  |                                 -0.00685003       0.00931253       0.04068653
  ----------------------------------------------------------------------
  | Atom     4: H
  |   Hirshfeld charge        :      0.12272134
  |   Free atom volume        :     10.44207651
  |   Hirshfeld volume        :     11.63875442
  |   Hirshfeld dipole vector :     -0.00304054      -0.00484245       0.05383001
  |   Hirshfeld dipole moment :      0.05413284
  |   Hirshfeld second moments:      0.01569689       0.01032430      -0.00279361
  |                                  0.01032430       0.01643389       0.00190693
  |                                 -0.00279361       0.00190693       0.01440638
  ----------------------------------------------------------------------
  | Atom     5: O
  |   Hirshfeld charge        :     -0.21874667
  |   Free atom volume        :     23.95238533
  |   Hirshfeld volume        :     22.77847071
  |   Hirshfeld dipole vector :     -0.00545572      -0.02443369       0.03614057
  |   Hirshfeld dipole moment :      0.04396488
  |   Hirshfeld second moments:      0.04600577      -0.01204786       0.00461878
  |                                 -0.01204786       0.02418523       0.04763085
  |                                  0.00461878       0.04763085      -0.00705799
  ----------------------------------------------------------------------
  | Atom     6: H
  |   Hirshfeld charge        :      0.11821275
  |   Free atom volume        :     10.44207651
  |   Hirshfeld volume        :     10.43523295
  |   Hirshfeld dipole vector :      0.01020898       0.03994222       0.06221588
  |   Hirshfeld dipole moment :      0.07463524
  |   Hirshfeld second moments:      0.05461225       0.00628846      -0.00235184
  |                                  0.00628846       0.03576634       0.01356480
  |                                 -0.00235184       0.01356480       0.02267002
  ----------------------------------------------------------------------
  | Atom     7: H
  |   Hirshfeld charge        :      0.11929369
  |   Free atom volume        :     10.44207651
  |   Hirshfeld volume        :     10.36394687
  |   Hirshfeld dipole vector :      0.05862313      -0.04393493       0.00352459
  |   Hirshfeld dipole moment :      0.07334420
  |   Hirshfeld second moments:      0.04181774       0.00118189      -0.00218720
  |                                  0.00118189       0.04285288       0.02496952
  |                                 -0.00218720       0.02496952       0.03830887
  ----------------------------------------------------------------------
  | Atom     8: O
  |   Hirshfeld charge        :     -0.36322155
  |   Free atom volume        :     23.95238533
  |   Hirshfeld volume        :     24.28022689
  |   Hirshfeld dipole vector :     -0.04140115       0.04126403       0.05153145
  |   Hirshfeld dipole moment :      0.07792474
  |   Hirshfeld second moments:     -0.06936266      -0.04245962       0.02882491
  |                                 -0.04245962      -0.07199976      -0.02252284
  |                                  0.02882491      -0.02252284      -0.00036948
  ----------------------------------------------------------------------
  | Atom     9: H
  |   Hirshfeld charge        :      0.10991257
  |   Free atom volume        :     10.44207651
  |   Hirshfeld volume        :      7.99240818
  |   Hirshfeld dipole vector :      0.01187127      -0.00649310       0.11984314
  |   Hirshfeld dipole moment :      0.12060459
  |   Hirshfeld second moments:      0.07814362      -0.01783372       0.00817149
  |                                 -0.01783372       0.07495822      -0.00770852
  |                                  0.00817149      -0.00770852       0.07962054
  ----------------------------------------------------------------------
  | Atom    10: H
  |   Hirshfeld charge        :      0.06269175
  |   Free atom volume        :     10.44207651
  |   Hirshfeld volume        :      9.27162904
  |   Hirshfeld dipole vector :     -0.03468545       0.03745264       0.01307158
  |   Hirshfeld dipole moment :      0.05269390
  |   Hirshfeld second moments:      0.02169045       0.01011575      -0.01450411
  |                                  0.01011575       0.02612066       0.00470127
  |                                 -0.01450411       0.00470127       0.07011298
  ----------------------------------------------------------------------
  | Atom    11: O
  |   Hirshfeld charge        :     -0.21288232
  |   Free atom volume        :     23.95238533
  |   Hirshfeld volume        :     21.68731210
  |   Hirshfeld dipole vector :      0.02722099       0.02377446       0.02758315
  |   Hirshfeld dipole moment :      0.04546468
  |   Hirshfeld second moments:      0.03434560      -0.02842643      -0.04410059
  |                                 -0.02842643       0.04023147      -0.01789783
  |                                 -0.04410059      -0.01789783       0.05535058
  ----------------------------------------------------------------------
  | Atom    12: H
  |   Hirshfeld charge        :      0.15069951
  |   Free atom volume        :     10.44207651
  |   Hirshfeld volume        :      7.07680523
  |   Hirshfeld dipole vector :     -0.05536943       0.07517121       0.06861972
  |   Hirshfeld dipole moment :      0.11586695
  |   Hirshfeld second moments:      0.10478835      -0.00409173      -0.01394478
  |                                 -0.00409173       0.10043725      -0.01323084
  |                                 -0.01394478      -0.01323084       0.10976155
  ----------------------------------------------------------------------
  | Atom    13: H
  |   Hirshfeld charge        :      0.13115329
  |   Free atom volume        :     10.44207651
  |   Hirshfeld volume        :      9.97447232
  |   Hirshfeld dipole vector :      0.04346316       0.05570410      -0.03703729
  |   Hirshfeld dipole moment :      0.07977314
  |   Hirshfeld second moments:      0.05448924      -0.01689048      -0.00072707
  |                                 -0.01689048       0.06820646      -0.01136403
  |                                 -0.00072707      -0.01136403       0.02424120
  ----------------------------------------------------------------------


------------------------------------------------------------------------------
  Final output of selected total energy values:

  The following output summarizes some interesting total energy values
  at the end of a run (AFTER all relaxation, molecular dynamics, etc.).

  | Total energy of the DFT / Hartree-Fock s.c.f. calculation      :          -8345.705551892 eV
  | Final zero-broadening corrected energy (caution - metals only) :          -8345.708372840 eV
  | For reference only, the value of 1 Hartree used in FHI-aims is :             27.211384500 eV

  Before relying on these values, please be sure to understand exactly which
  total energy value is referred to by a given number. Different objects may
  all carry the same name 'total energy'. Definitions:

  Total energy of the DFT / Hartree-Fock s.c.f. calculation:
  | Note that this energy does not include ANY quantities calculated after the
  | s.c.f. cycle, in particular not ANY RPA, MP2, etc. many-body perturbation terms.

  Final zero-broadening corrected energy:
  | For metallic systems only, a broadening of the occupation numbers at the Fermi
  | level can be extrapolated back to zero broadening by an electron-gas inspired
  | formula. For all systems that are not real metals, this value can be
  | meaningless and should be avoided.

------------------------------------------------------------------------------

------------------------------------------------------------
          Leaving FHI-aims.
          Date     :  20150727, Time     :  125733.278

          Computational steps:
          | Number of self-consistency cycles          :           15

          Detailed time accounting                     :  max(cpu_time)    wall_clock(cpu1)
          | Total time                                 :       23.510 s          23.538 s
          | Preparation time                           :        0.168 s           0.484 s
          | Grid partitioning                          :        0.140 s           0.140 s
          | Preloading free-atom quantities on grid    :        0.013 s           0.013 s
          | Free-atom superposition energy             :        0.051 s           0.051 s
          | Total time for integrations                :        9.254 s           9.252 s
          | Total time for solution of K.-S. equations :        0.671 s           0.675 s
          | Total time for density & force components  :        7.995 s           7.988 s
          | Total time for mixing                      :        0.158 s           0.158 s
          | Total time for Hartree multipole update    :        0.070 s           0.069 s
          | Total time for Hartree multipole sum       :        4.421 s           4.427 s
          | Total time for total energy evaluation     :        0.009 s           0.022 s
          | Total time for scaled ZORA corrections     :        0.000 s           0.000 s
          | Total time for TS (2009) vdW correction    :        0.043 s           0.046 s

          Have a nice day.
------------------------------------------------------------
