  MPI-parallelism will be employed.
------------------------------------------------------------
          Invoking FHI-aims ...
          Version 081213
          Compiled on 2013/08/29 at 17:41:06 on host generoso.

          When using FHI-aims, please cite the following reference:

          Volker Blum, Ralf Gehrke, Felix Hanke, Paula Havu,
          Ville Havu, Xinguo Ren, Karsten Reuter, and Matthias Scheffler,
          'Ab Initio Molecular Simulations with Numeric Atom-Centered Orbitals: FHI-aims',
          Computer Physics Communications 180, 2175-2196 (2009)

          For any questions about FHI-aims, please visit the aimsclub website
          with its forums and wiki. Contributions to both the forums and the
          wiki are warmly encouraged - they are for you, and everyone is welcome there.

------------------------------------------------------------

  Date     :  20150727, Time     :  121113.649
  Time zero on CPU 1             :   0.519910000000000E-01  s.
  Internal wall clock time zero  :           207231073.649  s.

  Using        8 parallel tasks.
  Task        0 on host gen59 reporting.
  Task        1 on host gen59 reporting.
  Task        2 on host gen59 reporting.
  Task        3 on host gen59 reporting.
  Task        4 on host gen59 reporting.
  Task        5 on host gen59 reporting.
  Task        6 on host gen59 reporting.
  Task        7 on host gen59 reporting.

  Performing system and environment tests:
  | Environment variable OMP_NUM_THREADS correctly set to 1.
  | Checking for scalapack...
  | No scalapack compiled in.

  Obtaining array dimensions for all initial allocations:
  
  -----------------------------------------------------------------------
  Parsing control.in (first pass over file, find array dimensions only).
  The contents of control.in will be repeated verbatim below
  unless switched off by setting 'verbatim_writeout .false.' .
  in the first line of control.in .
  -----------------------------------------------------------------------
  
  #########################################################################################
  #
  #  Volker Blum, FHI 2008 : Test run input file control.in
  #
  #########################################################################################
  #
  #  Physical model
  #
    xc                 rpbe
    spin               none
    relativistic       atomic_zora scalar
    charge             0.
   vdw_correction_hirshfeld
  #
  #  SCF convergence
  #
    occupation_type    gaussian 0.01
    mixer              pulay
      n_max_pulay        10
      charge_mix_param   0.1
    sc_accuracy_rho    5E-5
    sc_accuracy_eev    5E-3
    sc_accuracy_etot   5E-6
    sc_iter_limit      3000
  #
  #  Eigenvalue solver
  #
    KS_method          lapack
      empty_states       8
      basis_threshold    0.e-5
  #
  #  Efficiency
  #
  #   all previous settings are now default, except stratmann still
  #   undecided. Continue to handle stratmann with care, if at all.
  #
  #  partition_type stratmann
    partition_type rho_r2
  #  hartree_partition_type stratmann
  #
  #  Oprions for large clusters (100's of atoms: memory saving / better scaling)
  #
  # for periodic systems:
  #
    density_update_method orbital
    packed_matrix_format none
  #  k_grid 6 6 6
  #  output k_eigenvalue 1
  #  distributed_spline_storage .true.
  #
  #  Relaxation
  #
  #  relax_geometry   bfgs 5.e-3
    sc_accuracy_forces 5.E-4
    final_forces_cleaned .true.
  #
  #  Output options
  #
  #  output mulliken
    output Hirshfeld
  #  output dipole
  
  #harmonic_length_scale 0.001
  
  ################################################################################
  #
  #  FHI-aims code project
  #  VB, Fritz-Haber Institut, 2007
  #
  #  Suggested "safe" defaults for H atom (to be pasted into control.in file)
  #  Basis constructed for a non-relativistic H2 molecule using the
  #  PW-LDA functional.
  #
  ################################################################################
    species        H
  #     global species definitions
      nucleus             1
      cut_pot             4.0  2.0  1.0
      cut_free_atom       finite 8.0
      logarithmic         0.00010000 100.00  1.0123
      basis_dep_cutoff    1d-4  # 1d-4 is safe default - please check 5d-4 if you wish!
      radial_base         24 7.0
      radial_multiplier   2
      angular_grids       specified
        division   0.2783  110
        division   0.3822  194
        division   0.5626  302
  #      division   0.5922  434
  #      division   0.6227  590
  #      division   0.7206  770
        outer_grid  302
      l_hartree           4
  ################################################################################
  #
  #  Definition of "minimal" basis
  #
  ################################################################################
  #     valence basis states
      valence      1  s   1.
  #     ion occupancy
      ion_occ      1  s   0.5
  ################################################################################
  #
  #  Suggested additional basis functions. For production calculations,
  #  uncomment them one after another (the most important basis functions are
  #  listed first).
  #
  ################################################################################
  #  "First tier" - improvements: -1014.90 meV to -62.69 meV
       hydro 2 s 2.1
       hydro 2 p 3.5
  #  "Second tier" - improvements: -12.89 meV to -1.83 meV
       hydro 1 s 0.85
       hydro 2 p 3.7
       hydro 2 s 1.2
       hydro 3 d 7
  #  "Third tier" - improvements: -0.25 meV to -0.12 meV
  #     hydro 4 f 11.2
  #     hydro 3 p 4.8
  #     hydro 4 d 9
  #     hydro 3 s 3.2
  
  ################################################################################
  #
  #  FHI-aims code project
  #  VB, Fritz-Haber Institut, 2007
  #
  #  Suggested "safe" defaults for O atom (to be pasted into control.in file)
  #  All values have been tested for a non-relativistic, non-spinpolarized O2
  #  molecule using the PW-LDA functional. Validity for PBE is expected.
  #
  #  Constructed for dimers: 1.0 A, 1.208 A, 1.5 A, 2.0 A, 3.0 A
  #
  ################################################################################
    species        O
  #     global species definitions
      nucleus             8
      mass                15.9994
      l_hartree           4
      cut_pot             4.0  2.0  1.0
      cut_free_atom       finite 8.0
      basis_dep_cutoff    1d-4  # 1d-4 is safe default - please check 5d-4 if you wish!
      logarithmic         0.00010000 100.00  1.0123
      radial_base         36 7.0
      radial_multiplier   2
       angular_grids specified
        division   0.4087  110
        division   0.5181  194
        division   0.6184  302
  #      division   0.7315  434
  #      division   0.7934  590
  #      division   0.9656  770
  #      division   1.4041  974
  #      outer_grid 974
        outer_grid 302
  ################################################################################
  #
  #  Definition of "minimal" basis
  #
  ################################################################################
  #     valence basis states
      valence      2  s   2.
      valence      2  p   4.
  #     ion occupancy
      ion_occ      2  s   1.
      ion_occ      2  p   3.
  ################################################################################
  #
  #  Suggested additional basis functions. For production calculations,
  #  uncomment them one after another (the most important basis functions are
  #  listed first).
  #
  ################################################################################
  #  "First tier" - improvements: -699.05 meV to -159.38 meV
       hydro 2 p 1.8
       hydro 3 d 7.6
       hydro 3 s 6.4
  #  "Second tier" - improvements: -49.91 meV to -5.39 meV
       hydro 4 f 11.6
       hydro 3 p 6.2
       hydro 3 d 5.6
       hydro 5 g 17.6
       hydro 1 s 0.75
  #  "Third tier" - improvements: -2.83 meV to -0.50 meV
  #     ionic 2 p auto
  #     hydro 4 f 10.8
  #     hydro 4 d 4.7
  #     hydro 2 s 6.8
  #  "Fourth tier" - improvements: -0.40 meV to -0.12 meV
  #     hydro 3 p 5
  #     hydro 3 s 3.3
  #     hydro 5 g 15.6
  #     hydro 4 f 17.6
  #     hydro 4 d 14
  # Further basis functions - -0.08 meV and below
  #     hydro 3 s 2.1
  #     hydro 4 d 11.6
  #     hydro 3 p 16
  #     hydro 2 s 17.2
  
  
  -----------------------------------------------------------------------
  Completed first pass over input file control.in .
  -----------------------------------------------------------------------
  
  
  -----------------------------------------------------------------------
  Parsing geometry.in (first pass over file, find array dimensions only).
  The contents of geometry.in will be repeated verbatim below
  unless switched off by setting 'verbatim_writeout .false.' .
  in the first line of geometry.in .
  -----------------------------------------------------------------------
  
  atom      -4.053030000      0.065001000     -1.525160000  O
  atom      -4.566710000      0.974813000     -1.912820000  H
  atom      -3.067820000      0.330172000     -1.477310000  H
  atom      -4.370360000     -0.049164000     -0.572274000  H
  atom      -4.581760000     -0.256435000      0.939478000  O
  atom      -4.349860000      0.471090000      1.504340000  H
  atom      -5.393870000     -0.726611000      1.228070000  H
  atom      -1.645860000      0.870179000     -1.502250000  O
  atom      -1.568890000      1.501730000     -0.721051000  H
  atom      -0.824432000      0.282220000     -1.377720000  H
  atom      -3.818880000      2.024990000      2.187990000  O
  atom      -3.690880000      1.961360000      3.202150000  H
  atom      -4.546490000      2.751300000      2.045370000  H
  atom      -1.975360000      2.858040000      0.453140000  O
  atom      -1.223550000      3.375850000      0.786238000  H
  atom      -2.537520000      2.567960000      1.156120000  H
  atom      -4.066610000      4.258280000     -0.900064000  O
  atom      -3.224110000      3.876870000     -0.569443000  H
  atom      -3.737450000      5.116530000     -1.322720000  H
  atom      -5.628340000      3.730740000      1.385610000  O
  atom      -6.090650000      4.418470000      1.860350000  H
  atom      -5.158540000      4.200260000      0.615875000  H
  
  -----------------------------------------------------------------------
  Completed first pass over input file geometry.in .
  -----------------------------------------------------------------------
  
 
  Basic array size parameters: 
  | Number of species                 :        2
  | Number of atoms                   :       22
  | Max. basis fn. angular momentum   :        4
  | Max. atomic/ionic basis occupied n:        2
  | Max. number of basis fn. types    :        2
  | Max. radial fns per species/type  :        8
  | Max. logarithmic grid size        :     1301
  | Max. radial integration grid size :       73
  | Max. angular integration grid size:      302
  | Max. angular grid division number :        8
  | Radial grid for Hartree potential :     1301
  | Number of spin channels           :        1

------------------------------------------------------------
          Reading file control.in.
------------------------------------------------------------
  XC: Using RPBE gradient-corrected functionals.
  Spin treatment: No spin polarisation.
  Scalar relativistic treatment of kinetic energy: on-site free-atom approximation to ZORA.
  Charge =   0.000000E+00: Neutral system requested explicitly.
  Using non-empirical van der Waals correction (Hirshfeld partitioning):
  Occupation type: Gaussian broadening, width =   0.100000E-01 eV.
  Using pulay charge density mixing.
  Pulay mixing - number of memorized iterations:   10
  Charge density mixing - mixing parameter:     0.1000
  Convergence accuracy of self-consistent charge density: 0.5000E-04
  Convergence accuracy of sum of eigenvalues: 0.5000E-02
  Convergence accuracy of total energy: 0.5000E-05
  Maximum number of s.-c. iterations  :  3000
  Kohn-Sham eigenvalues and eigenfunctions calculated by lapack diagonalisation (D&C).
  Number of empty states per atom:        8
  Threshold for basis singularities: 0.0000E+00
  Partition function in integrals calculations: rho / r^2
 Using packed matrix format           0
  Convergence accuracy of forces: 0.5000E-03
  Cleaning forces before final output.
  Hirshfeld charge analysis will be performed.
 
  Reading configuration options for species H                   .
  | Found nuclear charge :   1.0000
  | Found cutoff potl. onset [A], width [A], scale factor :    4.00000    2.00000    1.00000
  | Found cutoff specification for free atom: Cutoff potential begins at    8.00000 A.
  | Found logarithmic grid data [bohr] : 0.1000E-03 0.1000E+03 0.1012E+01
  | Threshold for basis-dependent cutoff potential is   0.100000E-03
  | Found data for basic radial integration grid :    24 points, outermost radius =    7.000 A
  | Found multiplier for basic radial grid :   2
  | Found angular grid specification: user-specified.
  | Specified grid contains     4 separate shells.
  | Check grid settings after all constraints further below.
  | Found l_max for Hartree potential  :   4
  | Found free-atom valence shell :  1 s   1.000
  | No ionic wave fns used. Skipping ion_occ.
  | Found hydrogenic basis function :  2 s   2.100
  | Found hydrogenic basis function :  2 p   3.500
  | Found hydrogenic basis function :  1 s   0.850
  | Found hydrogenic basis function :  2 p   3.700
  | Found hydrogenic basis function :  2 s   1.200
  | Found hydrogenic basis function :  3 d   7.000
  Species H                   : Missing cutoff potential type.
  Defaulting to exp(1/x)/(1-x)^2 type cutoff potential.
  Species H : On-site basis accuracy parameter (for Gram-Schmidt orthonormalisation) not specified.
  Using default value basis_acc =  0.1000000E-03.
  Species H                   : Using default innermost maximum threshold i_radial=  2 for radial functions.
  Species H                   : Basic radial grid will be enhanced according to radial_multiplier =   2, to contain    49 grid points.
 
  Reading configuration options for species O                   .
  | Found nuclear charge :   8.0000
  | Found atomic mass :    15.9994000000000      amu
  | Found l_max for Hartree potential  :   4
  | Found cutoff potl. onset [A], width [A], scale factor :    4.00000    2.00000    1.00000
  | Found cutoff specification for free atom: Cutoff potential begins at    8.00000 A.
  | Threshold for basis-dependent cutoff potential is   0.100000E-03
  | Found logarithmic grid data [bohr] : 0.1000E-03 0.1000E+03 0.1012E+01
  | Found data for basic radial integration grid :    36 points, outermost radius =    7.000 A
  | Found multiplier for basic radial grid :   2
  | Found angular grid specification: user-specified.
  | Specified grid contains     4 separate shells.
  | Check grid settings after all constraints further below.
  | Found free-atom valence shell :  2 s   2.000
  | Found free-atom valence shell :  2 p   4.000
  | No ionic wave fns used. Skipping ion_occ.
  | No ionic wave fns used. Skipping ion_occ.
  | Found hydrogenic basis function :  2 p   1.800
  | Found hydrogenic basis function :  3 d   7.600
  | Found hydrogenic basis function :  3 s   6.400
  | Found hydrogenic basis function :  4 f  11.600
  | Found hydrogenic basis function :  3 p   6.200
  | Found hydrogenic basis function :  3 d   5.600
  | Found hydrogenic basis function :  5 g  17.600
  | Found hydrogenic basis function :  1 s   0.750
  Species O                   : Missing cutoff potential type.
  Defaulting to exp(1/x)/(1-x)^2 type cutoff potential.
  Species O : On-site basis accuracy parameter (for Gram-Schmidt orthonormalisation) not specified.
  Using default value basis_acc =  0.1000000E-03.
  Species O                   : Using default innermost maximum threshold i_radial=  2 for radial functions.
  Species O                   : Basic radial grid will be enhanced according to radial_multiplier =   2, to contain    73 grid points.
 
  Finished reading input file 'control.in'. Consistency checks are next.
 
  Target number of points in a grid batch is not set. Defaulting to  100
  Method for grid partitioning is not set. Defaulting to parallel hash+maxmin partitioning.
  Batch size limit is not set. Defaulting to    200
  By default, will store active basis functions for each batch.
  If in need of memory, prune_basis_once .false. can be used to disable this option.
  communication_type for Hartree potential was not specified.
  Defaulting to calc_hartree .
  Pulay mixer: Number of initial linear mixing iterations not set.
  Defaulting to    0 iterations.
  Work space size for distributed Hartree potential not set.
  Defaulting to   0.200000E+03 MB.
  Algorithm-dependent basis array size parameters:
  | n_max_pulay                         :       10
  Geometry relaxation not requested: no relaxation will be performed.
  Handling of forces: Unphysical translation and rotation will be removed from forces.
  No accuracy limit for integral partition fn. given. Defaulting to 0.1000E-14.
  No threshold value for u(r) in integrations given. Defaulting to 0.1000E-05.
  No accuracy for occupation numbers given. Defaulting to 0.1000E-07.
  No threshold value for occupation numbers given. Defaulting to 0.0000E+00.
  No accuracy for fermi level given. Defaulting to 0.1000E-19.
  Maximum # of iterations to find E_F not set. Defaulting to  200.
  Will not use alltoall communication since running on < 1024 CPUs.
  Partitioning for Hartree potential was not defined. Using partition_type for integrals.
  | Reporting present value of keyword multip_moments_threshold  :       0.10000000E-09
  | This value may affect high angular momentum components of the Hartree potential in periodic systems.
  No q(lm)/r^(l+1) cutoff set for long-range Hartree potential.
  | Using default value of  0.100000E-09 .
  | Verify using the multipole_threshold keyword.
  Defaulting to new monopole extrapolation.
  Density update method: Loop over occupied states selected for charge density update.
------------------------------------------------------------


------------------------------------------------------------
          Reading geometry description geometry.in.
------------------------------------------------------------
  Input structure read successfully.
  The structure contains       22 atoms,  and a total of         71.000 electrons.

  Input geometry:
  | No unit cell requested.
  | Atomic structure:
  |       Atom                x [A]            y [A]            z [A]
  |    1: Species O             -4.053030         0.065001        -1.525160
  |    2: Species H             -4.566710         0.974813        -1.912820
  |    3: Species H             -3.067820         0.330172        -1.477310
  |    4: Species H             -4.370360        -0.049164        -0.572274
  |    5: Species O             -4.581760        -0.256435         0.939478
  |    6: Species H             -4.349860         0.471090         1.504340
  |    7: Species H             -5.393870        -0.726611         1.228070
  |    8: Species O             -1.645860         0.870179        -1.502250
  |    9: Species H             -1.568890         1.501730        -0.721051
  |   10: Species H             -0.824432         0.282220        -1.377720
  |   11: Species O             -3.818880         2.024990         2.187990
  |   12: Species H             -3.690880         1.961360         3.202150
  |   13: Species H             -4.546490         2.751300         2.045370
  |   14: Species O             -1.975360         2.858040         0.453140
  |   15: Species H             -1.223550         3.375850         0.786238
  |   16: Species H             -2.537520         2.567960         1.156120
  |   17: Species O             -4.066610         4.258280        -0.900064
  |   18: Species H             -3.224110         3.876870        -0.569443
  |   19: Species H             -3.737450         5.116530        -1.322720
  |   20: Species O             -5.628340         3.730740         1.385610
  |   21: Species H             -6.090650         4.418470         1.860350
  |   22: Species H             -5.158540         4.200260         0.615875
  |

  | The smallest distance between any two atoms is         0.94570141 AA.
  |
  | The first atom of this pair is atom number                     14 .
  | The second atom of this pair is atom number                    16 .

  Structure-dependent array size parameters: 
  | Maximum number of distinct radial functions  :       18
  | Maximum number of basis functions            :      498
  | Number of Kohn-Sham states (occupied + empty):      124
------------------------------------------------------------

------------------------------------------------------------
          Preparing all fixed parts of the calculation.
------------------------------------------------------------
  Determining machine precision:
    2.225073858507201E-308
  Setting up grids for atomic and cluster calculations.

  Creating wave function, potential, and density for free atoms.

  Species: H

  List of occupied orbitals and eigenvalues:
    n    l              occ      energy [Ha]    energy [eV]
    1    0           1.0000        -0.241408        -6.5691


  Species: O

  List of occupied orbitals and eigenvalues:
    n    l              occ      energy [Ha]    energy [eV]
    1    0           2.0000       -18.944147      -515.4965
    2    0           2.0000        -0.883529       -24.0421
    2    1           4.0000        -0.330176        -8.9845

  Creating fixed part of basis set: Ionic, confined, hydrogenic.
 
  H                    hydrogenic:
 
  List of hydrogenic basis orbitals: 
    n    l      effective z      eigenvalue [eV]  inner max. [A]     outer max. [A]     outer radius [A]   
    2    0         2.100000       -14.9965           0.193241           1.317192           5.372934
    2    1         3.500000       -41.6672           0.602363           0.602363           4.056010
    1    0         0.850000        -9.8292           0.624864           0.624864           5.372934
    2    1         3.700000       -46.5653           0.573616           0.573616           3.909951
    2    0         1.200000        -4.5995           0.334977           2.228160           5.505921
    3    2         7.000000       -74.0753           0.680692           0.680692           3.769152
 
 
  O                    hydrogenic:
 
  List of hydrogenic basis orbitals: 
    n    l      effective z      eigenvalue [eV]  inner max. [A]     outer max. [A]     outer radius [A]   
    2    1         1.800000       -11.0118           1.178546           1.178546           5.432516
    3    2         7.600000       -87.3182           0.624117           0.624117           3.541422
    3    0         6.400000       -61.9209           0.061166           1.081887           4.306510
    4    3        11.600000      -114.4238           0.731621           0.731621           3.584982
    3    1         6.200000       -58.1113           0.255677           1.030255           4.306510
    3    2         5.600000       -47.4081           0.847222           0.847222           4.413102
    5    4        17.600000      -168.5799           0.749730           0.749730           3.372413
    1    0         0.750000        -7.6499           0.705275           0.705275           5.366508
 

  Adding cutoff potential to free-atom effective potential.
  Creating atomic-like basis functions for current effective potential.

  Species H                   :

  List of atomic basis orbitals and eigenvalues:
    n    l      energy [Ha]    energy [eV]    outer radius [A]
    1    0        -0.241374        -6.5681       5.372934


  Species O                   :

  List of atomic basis orbitals and eigenvalues:
    n    l      energy [Ha]    energy [eV]    outer radius [A]
    1    0       -18.944147      -515.4965       1.415745
    2    0        -0.883529       -24.0421       5.048305
    2    1        -0.330173        -8.9845       5.301302

  Assembling full basis from fixed parts.
  | Species H :   atomic orbital   1 s accepted.
  | Species H :    hydro orbital   2 s accepted.
  | Species H :    hydro orbital   1 s accepted.
  | Species H :    hydro orbital   2 s accepted.
  | Species H :    hydro orbital   2 p accepted.
  | Species H :    hydro orbital   2 p accepted.
  | Species H :    hydro orbital   3 d accepted.
  | Species O :   atomic orbital   1 s accepted.
  | Species O :    hydro orbital   3 s accepted.
  | Species O :   atomic orbital   2 s accepted.
  | Species O :    hydro orbital   1 s accepted.
  | Species O :    hydro orbital   3 p accepted.
  | Species O :   atomic orbital   2 p accepted.
  | Species O :    hydro orbital   2 p accepted.
  | Species O :    hydro orbital   3 d accepted.
  | Species O :    hydro orbital   3 d accepted.
  | Species O :    hydro orbital   4 f accepted.
  | Species O :    hydro orbital   5 g accepted.
 
  Basis size parameters after reduction:
  | Total number of radial functions:       18
  | Total number of basis functions :      498
 
  Testing on-site integration grid accuracy.
  |  Species  Function  <phi|h_atom|phi> (log., in eV)  <phi|h_atom|phi> (rad., in eV)
           1        1                 -6.5683835025                 -6.5684759159
           1        2                 13.3711789951                 13.3708738703
           1        3                 23.6590910787                 23.6532055418
           1        4                 16.2963827186                 16.1870710655 ***
           1        5                 28.7627214838                 28.7627215090
           1        6                 59.5965249172                 59.5965950857
           1        7                 60.2220506392                 60.2220503827
           2        8               -515.4964576505               -515.4964530710
           2        9                 15.3030791347                 15.3030722972
           2       10                -21.7296094581                -21.7296135470
           2       11                 14.2969371730                 14.2969701621
           2       12                 21.0679693190                 21.0679697493
           2       13                 -2.3833606469                 -2.3833613176
           2       14                 13.7067136422                 13.7066766629
           2       15                 45.8013116808                 45.8013116965
           2       16                 52.2309815402                 52.2309831494
           2       17                 85.4120732416                 85.4120732763
           2       18                142.1019167745                142.1019167817
 * Note: Onsite integrals marked "***" above are less accurate than
 * onsite_accuracy_threshold =    0.03000 eV. Usually, this is harmless.
 * When in doubt, tighten the "radial" and/or "radial_multiplier" flags to check.

  Preparing densities etc. for the partition functions (integrals / Hartree potential).

  Preparations completed.
  max(cpu_time)          :      0.173 s.
  Wall clock time (cpu1) :      0.572 s.
------------------------------------------------------------

------------------------------------------------------------
          Begin self-consistency loop: Initialization.

          Date     :  20150727, Time     :  121114.273
------------------------------------------------------------

  Initializing index lists of integration centers etc. from given atomic structure:
  | Number of centers in hartree potential         :        22
  | Number of centers in hartree multipole         :        22
  | Number of centers in electron density summation:        22
  | Number of centers in basis integrals           :        22
  | Number of centers in integrals                 :        22
  Partitioning the integration grid into batches with parallel hashing+maxmin method.
  | Number of batches:     2841
  | Maximal batch size:     195
  | Minimal batch size:      56
  | Average batch size:     101.017
  | Standard deviation of batch sizes:      32.684

  Integration load balanced across     8 MPI tasks.
  Work distribution over tasks is as follows:
  Task     0 has      35835 integration points.
  Task     1 has      35868 integration points.
  Task     2 has      35827 integration points.
  Task     3 has      35914 integration points.
  Task     4 has      35837 integration points.
  Task     5 has      35832 integration points.
  Task     6 has      35865 integration points.
  Task     7 has      36010 integration points.
  Initializing partition tables, free-atom densities, potentials, etc. across the integration grid (initialize_grid_storage).
  | Net number of integration points:   286988
  | of which are non-zero points    :   286403
  Obtaining max. number of non-zero basis functions in each batch (get_n_compute_maxes).
  | Maximal number of non-zero basis functions:      493 in task     0
  | Maximal number of non-zero basis functions:      493 in task     1
  | Maximal number of non-zero basis functions:      492 in task     2
  | Maximal number of non-zero basis functions:      493 in task     3
  | Maximal number of non-zero basis functions:      493 in task     4
  | Maximal number of non-zero basis functions:      491 in task     5
  | Maximal number of non-zero basis functions:      493 in task     6
  | Maximal number of non-zero basis functions:      493 in task     7
  Integrating Hamiltonian matrix: batch-based integration.
  Time summed over all CPUs for integration: real work       17.520 s, elapsed       17.874 s
  Integrating overlap matrix.
  Time summed over all CPUs for integration: real work        9.703 s, elapsed        9.891 s

  Updating Kohn-Sham eigenvalues, eigenvectors, occupation numbers, and Fermi level.
  Solving generalized eigenproblem
  Updating Kohn-Sham eigenvalues and eigenfunctions.
  Transforming overlap matrix and checking for singularities.
  Overlap matrix is nonsingular:
  | Lowest eigenvalue:  0.173555E-03
  Solving real generalised eigenvalue problem by standard LAPACK (fast)
  Determining occupation numbers for Kohn-Sham eigenstates.
  | Chemical potential (Fermi level) in eV                 : -.28547811E+01
  | Error in electron count due to remaining E_F inaccuracy: -.53210130E-08
  | Maximum occupation number of highest empty state:  0.00E+00

  Writing Kohn-Sham eigenvalues.

  State    Occupation    Eigenvalue [Ha]    Eigenvalue [eV]
      1       2.00000         -19.065176         -518.78985
      2       2.00000         -19.059595         -518.63798
      3       2.00000         -19.059293         -518.62976
      4       2.00000         -19.050658         -518.39477
      5       2.00000         -19.042641         -518.17663
      6       2.00000         -19.042591         -518.17526
      7       2.00000         -19.036202         -518.00140
      8       2.00000          -1.127558          -30.68241
      9       2.00000          -1.113652          -30.30401
     10       2.00000          -1.106103          -30.09860
     11       2.00000          -1.100207          -29.93817
     12       2.00000          -1.085993          -29.55139
     13       2.00000          -1.081623          -29.43247
     14       2.00000          -1.068369          -29.07180
     15       2.00000          -0.657420          -17.88930
     16       2.00000          -0.655090          -17.82592
     17       2.00000          -0.647739          -17.62588
     18       2.00000          -0.632440          -17.20956
     19       2.00000          -0.611384          -16.63662
     20       2.00000          -0.609361          -16.58155
     21       2.00000          -0.606377          -16.50036
     22       2.00000          -0.605731          -16.48277
     23       2.00000          -0.530673          -14.44035
     24       2.00000          -0.527856          -14.36368
     25       2.00000          -0.512369          -13.94228
     26       2.00000          -0.511215          -13.91087
     27       2.00000          -0.502282          -13.66780
     28       2.00000          -0.491377          -13.37105
     29       2.00000          -0.482483          -13.12902
     30       2.00000          -0.449006          -12.21808
     31       2.00000          -0.446770          -12.15724
     32       2.00000          -0.440412          -11.98423
     33       2.00000          -0.436077          -11.86626
     34       2.00000          -0.433227          -11.78871
     35       2.00000          -0.430819          -11.72319
     36       1.00000          -0.104911           -2.85478
     37       0.00000          -0.077471           -2.10809
     38       0.00000          -0.065801           -1.79053
     39       0.00000          -0.064670           -1.75976
     40       0.00000          -0.043237           -1.17655
     41       0.00000          -0.041978           -1.14228
     42       0.00000          -0.027723           -0.75438
     43       0.00000           0.020385            0.55469
     44       0.00000           0.028795            0.78354
     45       0.00000           0.029658            0.80703
     46       0.00000           0.036869            1.00325
     47       0.00000           0.045574            1.24012
     48       0.00000           0.052110            1.41799
     49       0.00000           0.055111            1.49964
     50       0.00000           0.058145            1.58220
     51       0.00000           0.069199            1.88301
     52       0.00000           0.071780            1.95324
     53       0.00000           0.088555            2.40971
     54       0.00000           0.089719            2.44137
     55       0.00000           0.095380            2.59543
     56       0.00000           0.098284            2.67444
     57       0.00000           0.106014            2.88478
     58       0.00000           0.114463            3.11470
     59       0.00000           0.121339            3.30179
     60       0.00000           0.124324            3.38302
     61       0.00000           0.125955            3.42740
     62       0.00000           0.130767            3.55834
     63       0.00000           0.135422            3.68502
     64       0.00000           0.142476            3.87697
     65       0.00000           0.148426            4.03888
     66       0.00000           0.152721            4.15574
     67       0.00000           0.160511            4.36772
     68       0.00000           0.162721            4.42785
     69       0.00000           0.181305            4.93356
     70       0.00000           0.192133            5.22820
     71       0.00000           0.196165            5.33792
     72       0.00000           0.209809            5.70920
     73       0.00000           0.230976            6.28518
     74       0.00000           0.243168            6.61694
     75       0.00000           0.249722            6.79528
     76       0.00000           0.263690            7.17538
     77       0.00000           0.269234            7.32624
     78       0.00000           0.274564            7.47127
     79       0.00000           0.284837            7.75081
     80       0.00000           0.292122            7.94904
     81       0.00000           0.302438            8.22975
     82       0.00000           0.319532            8.69491
     83       0.00000           0.323733            8.80923
     84       0.00000           0.332227            9.04035
     85       0.00000           0.345762            9.40866
     86       0.00000           0.349480            9.50983
     87       0.00000           0.351432            9.56296
     88       0.00000           0.365435            9.94399
     89       0.00000           0.374634           10.19432
     90       0.00000           0.382180           10.39965
     91       0.00000           0.390299           10.62057
     92       0.00000           0.400040           10.88565
     93       0.00000           0.405088           11.02302
     94       0.00000           0.408810           11.12428
     95       0.00000           0.423071           11.51235
     96       0.00000           0.443616           12.07140
     97       0.00000           0.447505           12.17723
     98       0.00000           0.449949           12.24374
     99       0.00000           0.470563           12.80468
    100       0.00000           0.480889           13.08566
    101       0.00000           0.487920           13.27697
    102       0.00000           0.491062           13.36248
    103       0.00000           0.506995           13.79604
    104       0.00000           0.528680           14.38612
    105       0.00000           0.534928           14.55614
    106       0.00000           0.552838           15.04348
    107       0.00000           0.563067           15.32184
    108       0.00000           0.580866           15.80616
    109       0.00000           0.597986           16.27202
    110       0.00000           0.607163           16.52173
    111       0.00000           0.633790           17.24629
    112       0.00000           0.651154           17.71880
    113       0.00000           0.666395           18.13354
    114       0.00000           0.690259           18.78289
    115       0.00000           0.697929           18.99161
    116       0.00000           0.716275           19.49082
    117       0.00000           0.729639           19.85449
    118       0.00000           0.749231           20.38761
    119       0.00000           0.759678           20.67188
    120       0.00000           0.774166           21.06614
    121       0.00000           0.785605           21.37740
    122       0.00000           0.799486           21.75512
    123       0.00000           0.822655           22.38558
    124       0.00000           0.834772           22.71531

  Highest occupied state (VBM) at    -11.72319105 eV
  | Occupation number:      2.00000000

  Lowest unoccupied state (CBM) at    -2.85478107 eV
  | Occupation number:      0.99999999

  Overall HOMO-LUMO gap:      8.86840998 eV.
  Calculating total energy contributions from superposition of free atom densities.

  Total energy components:
  | Sum of eigenvalues            :        -304.62445763 Ha       -8289.25324478 eV
  | XC energy correction          :         -64.23523627 Ha       -1747.92971252 eV
  | XC potential correction       :          82.10927386 Ha        2234.30702215 eV
  | Free-atom electrostatic energy:        -250.01556588 Ha       -6803.26969411 eV
  | Hartree energy correction     :           0.00000000 Ha           0.00000000 eV
  | van der Waals energy corr.    :           0.00000000 Ha           0.00000000 eV
  | Entropy correction            :          -0.00010367 Ha          -0.00282095 eV
  | ---------------------------
  | Total energy                  :        -536.76598591 Ha      -14606.14562925 eV
  | Total energy, T -> 0          :        -536.76608958 Ha      -14606.14845020 eV  <-- do not rely on this value for anything but (periodic) metals
  | Electronic free energy        :        -536.76619325 Ha      -14606.15127115 eV

  Derived energy quantities:
  | Kinetic energy                :         531.66952950 Ha       14467.46399419 eV
  | Electrostatic energy          :       -1004.20027915 Ha      -27325.67991093 eV
  | Energy correction for multipole
  | error in Hartree potential    :           0.00000000 Ha           0.00000000 eV
  | Sum of eigenvalues per atom                           :        -376.78423840 eV
  | Total energy (T->0) per atom                          :        -663.91583865 eV  <-- do not rely on this value for anything but (periodic) metals
  | Electronic free energy per atom                       :        -663.91596687 eV
  Initialize hartree_potential_storage
  Max. number of atoms included in rho_multipole:           22

  End scf initialization - timings             :  max(cpu_time)    wall_clock(cpu1)
  | Time for scf. initialization               :        4.595 s           4.595 s
  | Boundary condition initialization          :        0.000 s           0.000 s
  | Integration                                :        3.478 s           3.479 s
  | Solution of K.-S. eqns.                    :        0.478 s           0.477 s
  | Grid partitioning                          :        0.211 s           0.211 s
  | Preloading free-atom quantities on grid    :        0.013 s           0.013 s
  | Free-atom superposition energy             :        0.124 s           0.125 s
  | Total energy evaluation                    :        0.000 s           0.001 s
------------------------------------------------------------

------------------------------------------------------------
          Begin self-consistency iteration #    1

  Date     :  20150727, Time     :  121118.869
------------------------------------------------------------
  Evaluating new KS density.
  Integration grid: deviation in total charge (<rho> - N_e) =  -5.320956E-09
  Pulay mixing of updated and previous charge densities.

  Evaluating partitioned Hartree potential by multipole expansion.
  | Analytical far-field extrapolation by fixed multipoles:
  | Hartree multipole sum: apparent total charge =  -0.167736E-05
  Summing up the Hartree potential.
  Time summed over all CPUs for potential: real work        5.435 s, elapsed        5.460 s
  | RMS charge density error from multipole expansion :   0.197222E-02

  Integrating Hamiltonian matrix: batch-based integration.
  Time summed over all CPUs for integration: real work       17.519 s, elapsed       17.853 s

  Updating Kohn-Sham eigenvalues, eigenvectors, occupation numbers, and Fermi level.
  Solving generalized eigenproblem
  Updating Kohn-Sham eigenvalues and eigenfunctions.
  Solving real generalised eigenvalue problem by standard LAPACK (fast)
  Determining occupation numbers for Kohn-Sham eigenstates.
  | Chemical potential (Fermi level) in eV                 : -.25653327E+01
  | Error in electron count due to remaining E_F inaccuracy: 0.11510792E-10
  | Maximum occupation number of highest empty state:  0.00E+00

  Writing Kohn-Sham eigenvalues.

  State    Occupation    Eigenvalue [Ha]    Eigenvalue [eV]
      1       2.00000         -19.006361         -517.18939
      2       2.00000         -18.983411         -516.56491
      3       2.00000         -18.982840         -516.54935
      4       2.00000         -18.976258         -516.37024
      5       2.00000         -18.972096         -516.25699
      6       2.00000         -18.965920         -516.08894
      7       2.00000         -18.965034         -516.06483
      8       2.00000          -1.096504          -29.83739
      9       2.00000          -1.075395          -29.26298
     10       2.00000          -1.068890          -29.08599
     11       2.00000          -1.062620          -28.91537
     12       2.00000          -1.046410          -28.47426
     13       2.00000          -1.045478          -28.44892
     14       2.00000          -1.032014          -28.08253
     15       2.00000          -0.624304          -16.98819
     16       2.00000          -0.622458          -16.93794
     17       2.00000          -0.619115          -16.84696
     18       2.00000          -0.599915          -16.32452
     19       2.00000          -0.584455          -15.90382
     20       2.00000          -0.577507          -15.71476
     21       2.00000          -0.575345          -15.65594
     22       2.00000          -0.572419          -15.57631
     23       2.00000          -0.495522          -13.48383
     24       2.00000          -0.493851          -13.43838
     25       2.00000          -0.475489          -12.93873
     26       2.00000          -0.473213          -12.87677
     27       2.00000          -0.464899          -12.65055
     28       2.00000          -0.455711          -12.40053
     29       2.00000          -0.447835          -12.18622
     30       2.00000          -0.409508          -11.14329
     31       2.00000          -0.407812          -11.09712
     32       2.00000          -0.401489          -10.92506
     33       2.00000          -0.399088          -10.85974
     34       2.00000          -0.394558          -10.73646
     35       2.00000          -0.390087          -10.61480
     36       1.00000          -0.094274           -2.56533
     37       0.00000          -0.067741           -1.84333
     38       0.00000          -0.057056           -1.55258
     39       0.00000          -0.055376           -1.50685
     40       0.00000          -0.035247           -0.95912
     41       0.00000          -0.033717           -0.91749
     42       0.00000          -0.019989           -0.54393
     43       0.00000           0.032213            0.87656
     44       0.00000           0.037430            1.01853
     45       0.00000           0.040287            1.09627
     46       0.00000           0.044690            1.21608
     47       0.00000           0.055914            1.52151
     48       0.00000           0.059348            1.61494
     49       0.00000           0.064527            1.75588
     50       0.00000           0.068082            1.85261
     51       0.00000           0.076878            2.09196
     52       0.00000           0.082464            2.24397
     53       0.00000           0.097325            2.64834
     54       0.00000           0.099814            2.71607
     55       0.00000           0.105528            2.87155
     56       0.00000           0.109368            2.97605
     57       0.00000           0.115231            3.13558
     58       0.00000           0.123915            3.37190
     59       0.00000           0.132676            3.61029
     60       0.00000           0.134778            3.66749
     61       0.00000           0.137968            3.75429
     62       0.00000           0.144102            3.92121
     63       0.00000           0.146616            3.98963
     64       0.00000           0.154035            4.19149
     65       0.00000           0.163837            4.45824
     66       0.00000           0.170580            4.64173
     67       0.00000           0.174179            4.73965
     68       0.00000           0.177216            4.82229
     69       0.00000           0.192653            5.24237
     70       0.00000           0.203458            5.53638
     71       0.00000           0.206078            5.60768
     72       0.00000           0.219376            5.96952
     73       0.00000           0.239880            6.52746
     74       0.00000           0.252424            6.86881
     75       0.00000           0.258778            7.04172
     76       0.00000           0.272544            7.41629
     77       0.00000           0.279120            7.59524
     78       0.00000           0.284467            7.74074
     79       0.00000           0.293758            7.99356
     80       0.00000           0.300324            8.17222
     81       0.00000           0.309420            8.41976
     82       0.00000           0.328463            8.93794
     83       0.00000           0.332976            9.06074
     84       0.00000           0.340603            9.26828
     85       0.00000           0.354701            9.65189
     86       0.00000           0.359493            9.78231
     87       0.00000           0.360125            9.79950
     88       0.00000           0.374283           10.18477
     89       0.00000           0.383805           10.44385
     90       0.00000           0.391945           10.66536
     91       0.00000           0.399562           10.87262
     92       0.00000           0.408375           11.11245
     93       0.00000           0.414586           11.28145
     94       0.00000           0.418251           11.38120
     95       0.00000           0.433040           11.78363
     96       0.00000           0.452292           12.30749
     97       0.00000           0.457729           12.45543
     98       0.00000           0.459471           12.50283
     99       0.00000           0.481421           13.10013
    100       0.00000           0.489986           13.33319
    101       0.00000           0.500608           13.62222
    102       0.00000           0.501896           13.65727
    103       0.00000           0.519289           14.13058
    104       0.00000           0.541073           14.72334
    105       0.00000           0.546989           14.88434
    106       0.00000           0.564188           15.35234
    107       0.00000           0.574658           15.63723
    108       0.00000           0.591506           16.09570
    109       0.00000           0.610116           16.60211
    110       0.00000           0.619961           16.86999
    111       0.00000           0.646000           17.57856
    112       0.00000           0.663657           18.05903
    113       0.00000           0.677801           18.44389
    114       0.00000           0.702519           19.11652
    115       0.00000           0.710242           19.32667
    116       0.00000           0.729847           19.86015
    117       0.00000           0.742976           20.21741
    118       0.00000           0.762101           20.73782
    119       0.00000           0.772037           21.00820
    120       0.00000           0.786518           21.40224
    121       0.00000           0.798615           21.73143
    122       0.00000           0.811377           22.07870
    123       0.00000           0.836387           22.75926
    124       0.00000           0.847999           23.07523

  Highest occupied state (VBM) at     -2.56533273 eV
  | Occupation number:      1.00000000

  Lowest unoccupied state (CBM) at    -1.84333077 eV
  | Occupation number:      0.00000000

  Overall HOMO-LUMO gap:      0.72200196 eV.

  Total energy components:
  | Sum of eigenvalues            :        -301.62189457 Ha       -8207.54934669 eV
  | XC energy correction          :         -64.54489824 Ha       -1756.35604361 eV
  | XC potential correction       :          82.51309811 Ha        2245.29563897 eV
  | Free-atom electrostatic energy:        -250.01556588 Ha       -6803.26969411 eV
  | Hartree energy correction     :          -2.93233001 Ha         -79.79275947 eV
  | van der Waals energy corr.    :           0.00000000 Ha           0.00000000 eV
  | Entropy correction            :          -0.00010367 Ha          -0.00282095 eV
  | ---------------------------
  | Total energy                  :        -536.60159059 Ha      -14601.67220491 eV
  | Total energy, T -> 0          :        -536.60169426 Ha      -14601.67502585 eV  <-- do not rely on this value for anything but (periodic) metals
  | Electronic free energy        :        -536.60179793 Ha      -14601.67784680 eV

  Derived energy quantities:
  | Kinetic energy                :         533.54242143 Ha       14518.42797672 eV
  | Electrostatic energy          :       -1005.59911378 Ha      -27363.74413802 eV
  | Energy correction for multipole
  | error in Hartree potential    :           0.00055935 Ha           0.01522059 eV
  | Sum of eigenvalues per atom                           :        -373.07042485 eV
  | Total energy (T->0) per atom                          :        -663.71250118 eV  <-- do not rely on this value for anything but (periodic) metals
  | Electronic free energy per atom                       :        -663.71262940 eV

  Self-consistency convergence accuracy:
  | Change of charge density      : 0.7469E+00
  | Change of sum of eigenvalues  : 0.8170E+02 eV
  | Change of total energy        : 0.4473E+01 eV

  End self-consistency iteration #     1       :  max(cpu_time)    wall_clock(cpu1)
  | Time for this iteration                    :        4.474 s           4.473 s
  | Charge density update                      :        1.410 s           1.409 s
  | Density mixing                             :        0.005 s           0.005 s
  | Hartree multipole update                   :        0.007 s           0.007 s
  | Hartree multipole summation                :        0.684 s           0.684 s
  | Integration                                :        2.235 s           2.235 s
  | Solution of K.-S. eqns.                    :        0.127 s           0.127 s
  | Total energy evaluation                    :        0.001 s           0.001 s
------------------------------------------------------------

------------------------------------------------------------
          Begin self-consistency iteration #    2

  Date     :  20150727, Time     :  121123.342
------------------------------------------------------------
  Evaluating new KS density.
  Integration grid: deviation in total charge (<rho> - N_e) =   1.153921E-11
  Pulay mixing of updated and previous charge densities.

  Evaluating partitioned Hartree potential by multipole expansion.
  | Analytical far-field extrapolation by fixed multipoles:
  | Hartree multipole sum: apparent total charge =  -0.492011E-05
  Summing up the Hartree potential.
  Time summed over all CPUs for potential: real work        5.434 s, elapsed        5.460 s
  | RMS charge density error from multipole expansion :   0.807491E-02

  Integrating Hamiltonian matrix: batch-based integration.
  Time summed over all CPUs for integration: real work       17.487 s, elapsed       17.804 s

  Updating Kohn-Sham eigenvalues, eigenvectors, occupation numbers, and Fermi level.
  Solving generalized eigenproblem
  Updating Kohn-Sham eigenvalues and eigenfunctions.
  Solving real generalised eigenvalue problem by standard LAPACK (fast)
  Determining occupation numbers for Kohn-Sham eigenstates.
  | Chemical potential (Fermi level) in eV                 : -.18980958E+01
  | Error in electron count due to remaining E_F inaccuracy: 0.00000000E+00
  | Maximum occupation number of highest empty state:  0.00E+00

  Highest occupied state (VBM) at     -1.89809579 eV
  | Occupation number:      1.00000000

  Lowest unoccupied state (CBM) at    -1.89809579 eV
  | Occupation number:      1.00000000

  Overall HOMO-LUMO gap:      0.00000000 eV.

  Total energy components:
  | Sum of eigenvalues            :        -294.30638497 Ha       -8008.48420210 eV
  | XC energy correction          :         -65.33795864 Ha       -1777.93631509 eV
  | XC potential correction       :          83.54508574 Ha        2273.37745120 eV
  | Free-atom electrostatic energy:        -250.01556588 Ha       -6803.26969411 eV
  | Hartree energy correction     :         -10.30000652 Ha        -280.27743779 eV
  | van der Waals energy corr.    :           0.00000000 Ha           0.00000000 eV
  | Entropy correction            :          -0.00010367 Ha          -0.00282095 eV
  | ---------------------------
  | Total energy                  :        -536.41483027 Ha      -14596.59019790 eV
  | Total energy, T -> 0          :        -536.41493393 Ha      -14596.59301884 eV  <-- do not rely on this value for anything but (periodic) metals
  | Electronic free energy        :        -536.41503760 Ha      -14596.59583979 eV

  Derived energy quantities:
  | Kinetic energy                :         537.50283720 Ha       14626.19637297 eV
  | Electrostatic energy          :       -1008.57970883 Ha      -27444.85025578 eV
  | Energy correction for multipole
  | error in Hartree potential    :           0.00079866 Ha           0.02173273 eV
  | Sum of eigenvalues per atom                           :        -364.02200919 eV
  | Total energy (T->0) per atom                          :        -663.48150086 eV  <-- do not rely on this value for anything but (periodic) metals
  | Electronic free energy per atom                       :        -663.48162908 eV

  Self-consistency convergence accuracy:
  | Change of charge density      : 0.5680E+00
  | Change of sum of eigenvalues  : 0.1991E+03 eV
  | Change of total energy        : 0.5082E+01 eV

  End self-consistency iteration #     2       :  max(cpu_time)    wall_clock(cpu1)
  | Time for this iteration                    :        4.460 s           4.461 s
  | Charge density update                      :        1.406 s           1.405 s
  | Density mixing                             :        0.008 s           0.008 s
  | Hartree multipole update                   :        0.007 s           0.007 s
  | Hartree multipole summation                :        0.683 s           0.683 s
  | Integration                                :        2.229 s           2.229 s
  | Solution of K.-S. eqns.                    :        0.126 s           0.127 s
  | Total energy evaluation                    :        0.000 s           0.001 s
------------------------------------------------------------

------------------------------------------------------------
          Begin self-consistency iteration #    3

  Date     :  20150727, Time     :  121127.804
------------------------------------------------------------
  Evaluating new KS density.
  Integration grid: deviation in total charge (<rho> - N_e) =   2.842171E-14
  Pulay mixing of updated and previous charge densities.

  Evaluating partitioned Hartree potential by multipole expansion.
  | Analytical far-field extrapolation by fixed multipoles:
  | Hartree multipole sum: apparent total charge =  -0.404530E-05
  Summing up the Hartree potential.
  Time summed over all CPUs for potential: real work        5.434 s, elapsed        5.460 s
  | RMS charge density error from multipole expansion :   0.167762E-01

  Integrating Hamiltonian matrix: batch-based integration.
  Time summed over all CPUs for integration: real work       17.481 s, elapsed       17.795 s

  Updating Kohn-Sham eigenvalues, eigenvectors, occupation numbers, and Fermi level.
  Solving generalized eigenproblem
  Updating Kohn-Sham eigenvalues and eigenfunctions.
  Solving real generalised eigenvalue problem by standard LAPACK (fast)
  Determining occupation numbers for Kohn-Sham eigenstates.
  | Chemical potential (Fermi level) in eV                 : -.19006621E+01
  | Error in electron count due to remaining E_F inaccuracy: -.31121772E-11
  | Maximum occupation number of highest empty state:  0.00E+00

  Highest occupied state (VBM) at     -7.75695535 eV
  | Occupation number:      2.00000000

  Lowest unoccupied state (CBM) at    -1.90066211 eV
  | Occupation number:      1.00000000

  Overall HOMO-LUMO gap:      5.85629324 eV.

  Total energy components:
  | Sum of eigenvalues            :        -294.68984549 Ha       -8018.91869389 eV
  | XC energy correction          :         -65.34856175 Ha       -1778.22484022 eV
  | XC potential correction       :          83.54600072 Ha        2273.40234901 eV
  | Free-atom electrostatic energy:        -250.01556588 Ha       -6803.26969411 eV
  | Hartree energy correction     :          -9.90630982 Ha        -269.56440539 eV
  | van der Waals energy corr.    :           0.00000000 Ha           0.00000000 eV
  | Entropy correction            :          -0.00010367 Ha          -0.00282095 eV
  | ---------------------------
  | Total energy                  :        -536.41428221 Ha      -14596.57528460 eV
  | Total energy, T -> 0          :        -536.41438588 Ha      -14596.57810555 eV  <-- do not rely on this value for anything but (periodic) metals
  | Electronic free energy        :        -536.41448955 Ha      -14596.58092649 eV

  Derived energy quantities:
  | Kinetic energy                :         534.94962084 Ha       14556.71982068 eV
  | Electrostatic energy          :       -1006.01534130 Ha      -27375.07026506 eV
  | Energy correction for multipole
  | error in Hartree potential    :          -0.00642448 Ha          -0.17481889 eV
  | Sum of eigenvalues per atom                           :        -364.49630427 eV
  | Total energy (T->0) per atom                          :        -663.48082298 eV  <-- do not rely on this value for anything but (periodic) metals
  | Electronic free energy per atom                       :        -663.48095120 eV

  Self-consistency convergence accuracy:
  | Change of charge density      : 0.2721E+00
  | Change of sum of eigenvalues  : -.1043E+02 eV
  | Change of total energy        : 0.1491E-01 eV

  End self-consistency iteration #     3       :  max(cpu_time)    wall_clock(cpu1)
  | Time for this iteration                    :        4.458 s           4.458 s
  | Charge density update                      :        1.401 s           1.400 s
  | Density mixing                             :        0.010 s           0.011 s
  | Hartree multipole update                   :        0.007 s           0.007 s
  | Hartree multipole summation                :        0.683 s           0.683 s
  | Integration                                :        2.228 s           2.228 s
  | Solution of K.-S. eqns.                    :        0.128 s           0.127 s
  | Total energy evaluation                    :        0.000 s           0.000 s
------------------------------------------------------------

------------------------------------------------------------
          Begin self-consistency iteration #    4

  Date     :  20150727, Time     :  121132.262
------------------------------------------------------------
  Evaluating new KS density.
  Integration grid: deviation in total charge (<rho> - N_e) =  -3.083755E-12
  Pulay mixing of updated and previous charge densities.

  Evaluating partitioned Hartree potential by multipole expansion.
  | Analytical far-field extrapolation by fixed multipoles:
  | Hartree multipole sum: apparent total charge =  -0.478989E-05
  Summing up the Hartree potential.
  Time summed over all CPUs for potential: real work        5.434 s, elapsed        5.460 s
  | RMS charge density error from multipole expansion :   0.202705E-01

  Integrating Hamiltonian matrix: batch-based integration.
  Time summed over all CPUs for integration: real work       17.486 s, elapsed       17.801 s

  Updating Kohn-Sham eigenvalues, eigenvectors, occupation numbers, and Fermi level.
  Solving generalized eigenproblem
  Updating Kohn-Sham eigenvalues and eigenfunctions.
  Solving real generalised eigenvalue problem by standard LAPACK (fast)
  Determining occupation numbers for Kohn-Sham eigenstates.
  | Chemical potential (Fermi level) in eV                 : -.17363463E+01
  | Error in electron count due to remaining E_F inaccuracy: 0.17999469E-09
  | Maximum occupation number of highest empty state:  0.00E+00

  Highest occupied state (VBM) at     -1.73634626 eV
  | Occupation number:      1.00000000

  Lowest unoccupied state (CBM) at    -1.06700806 eV
  | Occupation number:      0.00000000

  Overall HOMO-LUMO gap:      0.66933820 eV.

  Total energy components:
  | Sum of eigenvalues            :        -293.27821805 Ha       -7980.50635691 eV
  | XC energy correction          :         -65.53059705 Ha       -1783.17827280 eV
  | XC potential correction       :          83.77977737 Ha        2279.76373541 eV
  | Free-atom electrostatic energy:        -250.01556588 Ha       -6803.26969411 eV
  | Hartree energy correction     :         -11.36276670 Ha        -309.19661357 eV
  | van der Waals energy corr.    :           0.00000000 Ha           0.00000000 eV
  | Entropy correction            :          -0.00010367 Ha          -0.00282095 eV
  | ---------------------------
  | Total energy                  :        -536.40737030 Ha      -14596.38720199 eV
  | Total energy, T -> 0          :        -536.40747397 Ha      -14596.39002293 eV  <-- do not rely on this value for anything but (periodic) metals
  | Electronic free energy        :        -536.40757764 Ha      -14596.39284388 eV

  Derived energy quantities:
  | Kinetic energy                :         535.08048584 Ha       14560.28083868 eV
  | Electrostatic energy          :       -1005.95725910 Ha      -27373.48976787 eV
  | Energy correction for multipole
  | error in Hartree potential    :          -0.00835216 Ha          -0.22727372 eV
  | Sum of eigenvalues per atom                           :        -362.75028895 eV
  | Total energy (T->0) per atom                          :        -663.47227377 eV  <-- do not rely on this value for anything but (periodic) metals
  | Electronic free energy per atom                       :        -663.47240199 eV

  Self-consistency convergence accuracy:
  | Change of charge density      : 0.1185E+00
  | Change of sum of eigenvalues  : 0.3841E+02 eV
  | Change of total energy        : 0.1881E+00 eV

  End self-consistency iteration #     4       :  max(cpu_time)    wall_clock(cpu1)
  | Time for this iteration                    :        4.457 s           4.457 s
  | Charge density update                      :        1.398 s           1.398 s
  | Density mixing                             :        0.012 s           0.012 s
  | Hartree multipole update                   :        0.007 s           0.007 s
  | Hartree multipole summation                :        0.683 s           0.683 s
  | Integration                                :        2.229 s           2.229 s
  | Solution of K.-S. eqns.                    :        0.126 s           0.127 s
  | Total energy evaluation                    :        0.001 s           0.001 s
------------------------------------------------------------

------------------------------------------------------------
          Begin self-consistency iteration #    5

  Date     :  20150727, Time     :  121136.720
------------------------------------------------------------
  Evaluating new KS density.
  Integration grid: deviation in total charge (<rho> - N_e) =   1.799947E-10
  Pulay mixing of updated and previous charge densities.

  Evaluating partitioned Hartree potential by multipole expansion.
  | Analytical far-field extrapolation by fixed multipoles:
  | Hartree multipole sum: apparent total charge =  -0.487485E-05
  Summing up the Hartree potential.
  Time summed over all CPUs for potential: real work        5.434 s, elapsed        5.460 s
  | RMS charge density error from multipole expansion :   0.210458E-01

  Integrating Hamiltonian matrix: batch-based integration.
  Time summed over all CPUs for integration: real work       17.481 s, elapsed       17.792 s

  Updating Kohn-Sham eigenvalues, eigenvectors, occupation numbers, and Fermi level.
  Solving generalized eigenproblem
  Updating Kohn-Sham eigenvalues and eigenfunctions.
  Solving real generalised eigenvalue problem by standard LAPACK (fast)
  Determining occupation numbers for Kohn-Sham eigenstates.
  | Chemical potential (Fermi level) in eV                 : -.16758248E+01
  | Error in electron count due to remaining E_F inaccuracy: 0.85265128E-12
  | Maximum occupation number of highest empty state:  0.00E+00

  Highest occupied state (VBM) at     -1.67582475 eV
  | Occupation number:      1.00000000

  Lowest unoccupied state (CBM) at    -1.02307689 eV
  | Occupation number:      0.00000000

  Overall HOMO-LUMO gap:      0.65274786 eV.

  Total energy components:
  | Sum of eigenvalues            :        -292.99502465 Ha       -7972.80027234 eV
  | XC energy correction          :         -65.56649057 Ha       -1784.15498520 eV
  | XC potential correction       :          83.82582620 Ha        2281.01678784 eV
  | Free-atom electrostatic energy:        -250.01556588 Ha       -6803.26969411 eV
  | Hartree energy correction     :         -11.65554357 Ha        -317.16347759 eV
  | van der Waals energy corr.    :           0.00000000 Ha           0.00000000 eV
  | Entropy correction            :          -0.00010367 Ha          -0.00282095 eV
  | ---------------------------
  | Total energy                  :        -536.40679846 Ha      -14596.37164139 eV
  | Total energy, T -> 0          :        -536.40690213 Ha      -14596.37446234 eV  <-- do not rely on this value for anything but (periodic) metals
  | Electronic free energy        :        -536.40700580 Ha      -14596.37728329 eV

  Derived energy quantities:
  | Kinetic energy                :         535.12280205 Ha       14561.43232133 eV
  | Electrostatic energy          :       -1005.96310994 Ha      -27373.64897752 eV
  | Energy correction for multipole
  | error in Hartree potential    :          -0.00896128 Ha          -0.24384877 eV
  | Sum of eigenvalues per atom                           :        -362.40001238 eV
  | Total energy (T->0) per atom                          :        -663.47156647 eV  <-- do not rely on this value for anything but (periodic) metals
  | Electronic free energy per atom                       :        -663.47169469 eV

  Self-consistency convergence accuracy:
  | Change of charge density      : 0.3062E-01
  | Change of sum of eigenvalues  : 0.7706E+01 eV
  | Change of total energy        : 0.1556E-01 eV

  End self-consistency iteration #     5       :  max(cpu_time)    wall_clock(cpu1)
  | Time for this iteration                    :        4.461 s           4.461 s
  | Charge density update                      :        1.401 s           1.400 s
  | Density mixing                             :        0.014 s           0.014 s
  | Hartree multipole update                   :        0.007 s           0.007 s
  | Hartree multipole summation                :        0.684 s           0.684 s
  | Integration                                :        2.228 s           2.227 s
  | Solution of K.-S. eqns.                    :        0.127 s           0.127 s
  | Total energy evaluation                    :        0.001 s           0.000 s
------------------------------------------------------------

------------------------------------------------------------
          Begin self-consistency iteration #    6

  Date     :  20150727, Time     :  121141.181
------------------------------------------------------------
  Evaluating new KS density.
  Integration grid: deviation in total charge (<rho> - N_e) =   8.100187E-13
  Pulay mixing of updated and previous charge densities.

  Evaluating partitioned Hartree potential by multipole expansion.
  | Analytical far-field extrapolation by fixed multipoles:
  | Hartree multipole sum: apparent total charge =  -0.495690E-05
  Summing up the Hartree potential.
  Time summed over all CPUs for potential: real work        5.434 s, elapsed        5.460 s
  | RMS charge density error from multipole expansion :   0.213515E-01

  Integrating Hamiltonian matrix: batch-based integration.
  Time summed over all CPUs for integration: real work       17.495 s, elapsed       17.861 s

  Updating Kohn-Sham eigenvalues, eigenvectors, occupation numbers, and Fermi level.
  Solving generalized eigenproblem
  Updating Kohn-Sham eigenvalues and eigenfunctions.
  Solving real generalised eigenvalue problem by standard LAPACK (fast)
  Determining occupation numbers for Kohn-Sham eigenstates.
  | Chemical potential (Fermi level) in eV                 : -.16817571E+01
  | Error in electron count due to remaining E_F inaccuracy: -.54477880E-08
  | Maximum occupation number of highest empty state:  0.00E+00

  Highest occupied state (VBM) at     -7.06100069 eV
  | Occupation number:      2.00000000

  Lowest unoccupied state (CBM) at    -1.68175713 eV
  | Occupation number:      0.99999999

  Overall HOMO-LUMO gap:      5.37924355 eV.

  Total energy components:
  | Sum of eigenvalues            :        -293.07001627 Ha       -7974.84089827 eV
  | XC energy correction          :         -65.56150833 Ha       -1784.01941153 eV
  | XC potential correction       :          83.81868262 Ha        2280.82240109 eV
  | Free-atom electrostatic energy:        -250.01556588 Ha       -6803.26969411 eV
  | Hartree energy correction     :         -11.57835010 Ha        -315.06293641 eV
  | van der Waals energy corr.    :           0.00000000 Ha           0.00000000 eV
  | Entropy correction            :          -0.00010367 Ha          -0.00282095 eV
  | ---------------------------
  | Total energy                  :        -536.40675796 Ha      -14596.37053923 eV
  | Total energy, T -> 0          :        -536.40686163 Ha      -14596.37336018 eV  <-- do not rely on this value for anything but (periodic) metals
  | Electronic free energy        :        -536.40696530 Ha      -14596.37618113 eV

  Derived energy quantities:
  | Kinetic energy                :         535.08177654 Ha       14560.31596027 eV
  | Electrostatic energy          :       -1005.92702617 Ha      -27372.66708797 eV
  | Energy correction for multipole
  | error in Hartree potential    :          -0.00953433 Ha          -0.25944234 eV
  | Sum of eigenvalues per atom                           :        -362.49276810 eV
  | Total energy (T->0) per atom                          :        -663.47151637 eV  <-- do not rely on this value for anything but (periodic) metals
  | Electronic free energy per atom                       :        -663.47164460 eV

  Self-consistency convergence accuracy:
  | Change of charge density      : 0.1446E-01
  | Change of sum of eigenvalues  : -.2041E+01 eV
  | Change of total energy        : 0.1102E-02 eV

  End self-consistency iteration #     6       :  max(cpu_time)    wall_clock(cpu1)
  | Time for this iteration                    :        4.472 s           4.472 s
  | Charge density update                      :        1.401 s           1.401 s
  | Density mixing                             :        0.016 s           0.016 s
  | Hartree multipole update                   :        0.007 s           0.007 s
  | Hartree multipole summation                :        0.684 s           0.684 s
  | Integration                                :        2.236 s           2.236 s
  | Solution of K.-S. eqns.                    :        0.127 s           0.126 s
  | Total energy evaluation                    :        0.000 s           0.001 s
------------------------------------------------------------

------------------------------------------------------------
          Begin self-consistency iteration #    7

  Date     :  20150727, Time     :  121145.654
------------------------------------------------------------
  Evaluating new KS density.
  Integration grid: deviation in total charge (<rho> - N_e) =  -5.447760E-09
  Pulay mixing of updated and previous charge densities.

  Evaluating partitioned Hartree potential by multipole expansion.
  | Analytical far-field extrapolation by fixed multipoles:
  | Hartree multipole sum: apparent total charge =  -0.492885E-05
  Summing up the Hartree potential.
  Time summed over all CPUs for potential: real work        5.432 s, elapsed        5.457 s
  | RMS charge density error from multipole expansion :   0.213287E-01

  Integrating Hamiltonian matrix: batch-based integration.
  Time summed over all CPUs for integration: real work       17.490 s, elapsed       17.812 s

  Updating Kohn-Sham eigenvalues, eigenvectors, occupation numbers, and Fermi level.
  Solving generalized eigenproblem
  Updating Kohn-Sham eigenvalues and eigenfunctions.
  Solving real generalised eigenvalue problem by standard LAPACK (fast)
  Determining occupation numbers for Kohn-Sham eigenstates.
  | Chemical potential (Fermi level) in eV                 : -.16916712E+01
  | Error in electron count due to remaining E_F inaccuracy: -.58889782E-10
  | Maximum occupation number of highest empty state:  0.00E+00

  Highest occupied state (VBM) at     -7.07769302 eV
  | Occupation number:      2.00000000

  Lowest unoccupied state (CBM) at    -1.69167125 eV
  | Occupation number:      1.00000000

  Overall HOMO-LUMO gap:      5.38602177 eV.

  Total energy components:
  | Sum of eigenvalues            :        -293.10473300 Ha       -7975.78558851 eV
  | XC energy correction          :         -65.55853473 Ha       -1783.93849570 eV
  | XC potential correction       :          83.81469971 Ha        2280.71402044 eV
  | Free-atom electrostatic energy:        -250.01556588 Ha       -6803.26969411 eV
  | Hartree energy correction     :         -11.54259461 Ha        -314.08998002 eV
  | van der Waals energy corr.    :           0.00000000 Ha           0.00000000 eV
  | Entropy correction            :          -0.00010367 Ha          -0.00282095 eV
  | ---------------------------
  | Total energy                  :        -536.40672851 Ha      -14596.36973791 eV
  | Total energy, T -> 0          :        -536.40683218 Ha      -14596.37255885 eV  <-- do not rely on this value for anything but (periodic) metals
  | Electronic free energy        :        -536.40693585 Ha      -14596.37537980 eV

  Derived energy quantities:
  | Kinetic energy                :         535.11026496 Ha       14561.09116967 eV
  | Electrostatic energy          :       -1005.95845874 Ha      -27373.52241188 eV
  | Energy correction for multipole
  | error in Hartree potential    :          -0.00966132 Ha          -0.26289778 eV
  | Sum of eigenvalues per atom                           :        -362.53570857 eV
  | Total energy (T->0) per atom                          :        -663.47147995 eV  <-- do not rely on this value for anything but (periodic) metals
  | Electronic free energy per atom                       :        -663.47160817 eV

  Self-consistency convergence accuracy:
  | Change of charge density      : 0.7732E-02
  | Change of sum of eigenvalues  : -.9447E+00 eV
  | Change of total energy        : 0.8013E-03 eV

  End self-consistency iteration #     7       :  max(cpu_time)    wall_clock(cpu1)
  | Time for this iteration                    :        4.468 s           4.467 s
  | Charge density update                      :        1.401 s           1.400 s
  | Density mixing                             :        0.019 s           0.018 s
  | Hartree multipole update                   :        0.007 s           0.007 s
  | Hartree multipole summation                :        0.683 s           0.683 s
  | Integration                                :        2.230 s           2.230 s
  | Solution of K.-S. eqns.                    :        0.127 s           0.128 s
  | Total energy evaluation                    :        0.000 s           0.001 s
------------------------------------------------------------

------------------------------------------------------------
          Begin self-consistency iteration #    8

  Date     :  20150727, Time     :  121150.122
------------------------------------------------------------
  Evaluating new KS density.
  Integration grid: deviation in total charge (<rho> - N_e) =  -5.890399E-11
  Pulay mixing of updated and previous charge densities.

  Evaluating partitioned Hartree potential by multipole expansion.
  | Analytical far-field extrapolation by fixed multipoles:
  | Hartree multipole sum: apparent total charge =  -0.510671E-05
  Summing up the Hartree potential.
  Time summed over all CPUs for potential: real work        5.433 s, elapsed        5.457 s
  | RMS charge density error from multipole expansion :   0.214631E-01

  Integrating Hamiltonian matrix: batch-based integration.
  Time summed over all CPUs for integration: real work       17.480 s, elapsed       17.808 s

  Updating Kohn-Sham eigenvalues, eigenvectors, occupation numbers, and Fermi level.
  Solving generalized eigenproblem
  Updating Kohn-Sham eigenvalues and eigenfunctions.
  Solving real generalised eigenvalue problem by standard LAPACK (fast)
  Determining occupation numbers for Kohn-Sham eigenstates.
  | Chemical potential (Fermi level) in eV                 : -.17056750E+01
  | Error in electron count due to remaining E_F inaccuracy: 0.67550587E-08
  | Maximum occupation number of highest empty state:  0.00E+00

  Highest occupied state (VBM) at     -1.70567501 eV
[...]
  | Total energy corrected        :         -0.145965544203652E+05 eV  <-- do not rely on this value for anything but (periodic) metals
  | Electronic free energy        :         -0.145965572413131E+05 eV
  Total atomic forces (unitary forces cleaned) [eV/Ang]:
  |   1         -0.157716886048723E+01          0.171436525257377E+01         -0.182323859674272E+01
  |   2          0.922865318595260E+00         -0.173605964548144E+01          0.737025273909797E+00
  |   3          0.845523929845543E+00          0.102891356598656E+00         -0.985030009309443E-01
  |   4         -0.233539310893622E+00         -0.119519937154858E+00          0.100689105953185E+01
  |   5         -0.636615196730699E+00         -0.221616096154388E+01         -0.146190949712616E+01
  |   6          0.867299402702863E-01          0.154657373905243E+01          0.133141083013301E+01
  |   7          0.380209088751113E+00          0.512191908751581E+00          0.151587707678132E+00
  |   8          0.170952169487536E+01         -0.470489715696111E+00          0.831465976166756E+00
  |   9         -0.239797453400878E+00         -0.803427166763580E-01         -0.488418257275376E+00
  |  10         -0.136752511393705E+01          0.694373552402043E+00         -0.326245256478566E+00
  |  11         -0.363570735916720E+00          0.332032696996035E+00          0.205954650157283E+01
  |  12         -0.187773486277948E+00          0.182413878267738E+00         -0.180782280662387E+01
  |  13          0.516367595074594E+00         -0.665892311992027E+00          0.100477802115109E+00
  |  14          0.151439595758440E+01          0.578173969579040E+00         -0.239014466756282E+01
  |  15         -0.683093574699313E-01         -0.247305437598811E-01          0.346247386598444E+00
  |  16         -0.104949261101853E+01         -0.546800113149327E+00          0.198762709877796E+01
  |  17          0.517094953117358E+00          0.155867697142992E+01         -0.684499582921501E+00
  |  18          0.513745301181311E-01         -0.277022263935664E+00          0.126899175997634E+00
  |  19         -0.691201425504990E+00         -0.119327432964955E+01          0.552182198537059E+00
  |  20          0.705381404300039E+00          0.110107738589467E+00         -0.121248156729070E+01
  |  21         -0.412545432480842E+00          0.606769117877375E+00          0.517051502085413E+00
  |  22         -0.421925428413646E+00         -0.608277643078958E+00          0.544850719848674E+00
 
  ------------------------------------ 
  Start decomposition of the XC Energy 
  ------------------------------------ 
  Hartree-Fock part   :          0.000000000 Ha              0.000000000 eV
  ------------------------------------ 
  X Energy            :        -63.226213254 Ha          -1720.472799347 eV
  C Energy GGA        :         -2.326878478 Ha            -63.317584949 eV
  Total XC Energy     :        -65.553091732 Ha          -1783.790384295 eV
  LDA X and C from self-consistent density 
  X Energy LDA        :        -57.025775493 Ha          -1551.750303353 eV
  C Energy LDA        :         -4.664852496 Ha           -126.937094893 eV
  ------------------------------------ 
  End decomposition of the XC Energy 
  ------------------------------------ 
  Performing Hirshfeld analysis of fragment charges and moments.
  ----------------------------------------------------------------------
  | Atom     1: O
  |   Hirshfeld charge        :     -0.13174737
  |   Free atom volume        :     23.95238533
  |   Hirshfeld volume        :     21.87378571
  |   Hirshfeld dipole vector :      0.01761760       0.02263633       0.03128380
  |   Hirshfeld dipole moment :      0.04244361
  |   Hirshfeld second moments:      0.07028434      -0.00836692      -0.00883410
  |                                 -0.00836692       0.04591884      -0.02445924
  |                                 -0.00883410      -0.02445924       0.05487644
  ----------------------------------------------------------------------
  | Atom     2: H
  |   Hirshfeld charge        :      0.09820405
  |   Free atom volume        :     10.44207651
  |   Hirshfeld volume        :     12.19118331
  |   Hirshfeld dipole vector :      0.01422242       0.01441010       0.01577993
  |   Hirshfeld dipole moment :      0.02566972
  |   Hirshfeld second moments:     -0.00467143       0.02336264      -0.01692475
  |                                  0.02336264      -0.00735307       0.02176909
  |                                 -0.01692475       0.02176909       0.00555800
  ----------------------------------------------------------------------
  | Atom     3: H
  |   Hirshfeld charge        :      0.10518126
  |   Free atom volume        :     10.44207651
  |   Hirshfeld volume        :      9.35744840
  |   Hirshfeld dipole vector :      0.01813357       0.00547337       0.01258183
  |   Hirshfeld dipole moment :      0.02273954
  |   Hirshfeld second moments:      0.02068439      -0.01638878      -0.00369340
  |                                 -0.01638878       0.06119816       0.00492962
  |                                 -0.00369340       0.00492962       0.06492912
  ----------------------------------------------------------------------
  | Atom     4: H
  |   Hirshfeld charge        :      0.10473530
  |   Free atom volume        :     10.44207651
  |   Hirshfeld volume        :      9.43849556
  |   Hirshfeld dipole vector :     -0.00469875       0.00158715       0.02216114
  |   Hirshfeld dipole moment :      0.02270932
  |   Hirshfeld second moments:      0.06104421       0.00940296       0.00530444
  |                                  0.00940296       0.06538944       0.00615503
  |                                  0.00530444       0.00615503       0.01649960
  ----------------------------------------------------------------------
  | Atom     5: O
  |   Hirshfeld charge        :     -0.23802558
  |   Free atom volume        :     23.95238533
  |   Hirshfeld volume        :     21.90944991
  |   Hirshfeld dipole vector :     -0.02245761       0.02693004      -0.00322791
  |   Hirshfeld dipole moment :      0.03521351
  |   Hirshfeld second moments:      0.03297097       0.04767063      -0.01558289
  |                                  0.04767063       0.03138132       0.01041832
  |                                 -0.01558289       0.01041832       0.05051308
  ----------------------------------------------------------------------
  | Atom     6: H
  |   Hirshfeld charge        :      0.09178174
  |   Free atom volume        :     10.44207651
  |   Hirshfeld volume        :      9.17818775
  |   Hirshfeld dipole vector :      0.01067229       0.03375381       0.02174621
  |   Hirshfeld dipole moment :      0.04154654
  |   Hirshfeld second moments:      0.06160077       0.00412961      -0.01336203
  |                                  0.00412961       0.03170942      -0.01669870
  |                                 -0.01336203      -0.01669870       0.05860368
  ----------------------------------------------------------------------
  | Atom     7: H
  |   Hirshfeld charge        :      0.12881297
  |   Free atom volume        :     10.44207651
  |   Hirshfeld volume        :      9.87142260
  |   Hirshfeld dipole vector :     -0.06739223      -0.04188684       0.01944685
  |   Hirshfeld dipole moment :      0.08169700
  |   Hirshfeld second moments:      0.03746022       0.01021006      -0.00478130
  |                                  0.01021006       0.06024390       0.01206100
  |                                 -0.00478130       0.01206100       0.06059920
  ----------------------------------------------------------------------
  | Atom     8: O
  |   Hirshfeld charge        :     -0.23124272
  |   Free atom volume        :     23.95238533
  |   Hirshfeld volume        :     22.35577261
  |   Hirshfeld dipole vector :     -0.01275314      -0.01839531       0.03753516
  |   Hirshfeld dipole moment :      0.04370261
  |   Hirshfeld second moments:      0.05254764      -0.01761033       0.00527650
  |                                 -0.01761033       0.03209120       0.03572924
  |                                  0.00527650       0.03572924      -0.00535118
  ----------------------------------------------------------------------
  | Atom     9: H
  |   Hirshfeld charge        :      0.09487656
  |   Free atom volume        :     10.44207651
  |   Hirshfeld volume        :      9.36631879
  |   Hirshfeld dipole vector :      0.00034421       0.02142172       0.03888887
  |   Hirshfeld dipole moment :      0.04439992
  |   Hirshfeld second moments:      0.07034252      -0.00114555      -0.00037506
  |                                 -0.00114555       0.04538079      -0.01198808
  |                                 -0.00037506      -0.01198808       0.02732692
  ----------------------------------------------------------------------
  | Atom    10: H
  |   Hirshfeld charge        :      0.11584735
  |   Free atom volume        :     10.44207651
  |   Hirshfeld volume        :     10.44418854
  |   Hirshfeld dipole vector :      0.05338728      -0.04361229       0.00926724
  |   Hirshfeld dipole moment :      0.06955657
  |   Hirshfeld second moments:      0.03708958       0.00623573      -0.00314506
  |                                  0.00623573       0.04077750       0.01659077
  |                                 -0.00314506       0.01659077       0.04200286
  ----------------------------------------------------------------------
  | Atom    11: O
  |   Hirshfeld charge        :     -0.21831276
  |   Free atom volume        :     23.95238533
  |   Hirshfeld volume        :     21.50973947
  |   Hirshfeld dipole vector :     -0.00695216       0.00382076      -0.01476201
  |   Hirshfeld dipole moment :      0.01675851
  |   Hirshfeld second moments:      0.03326004      -0.00953562       0.00408794
  |                                 -0.00953562       0.03890009      -0.00605849
  |                                  0.00408794      -0.00605849       0.06964726
  ----------------------------------------------------------------------
  | Atom    12: H
  |   Hirshfeld charge        :      0.10781068
  |   Free atom volume        :     10.44207651
  |   Hirshfeld volume        :     10.46393106
  |   Hirshfeld dipole vector :      0.00566414      -0.00781646       0.05803371
  |   Hirshfeld dipole moment :      0.05883104
  |   Hirshfeld second moments:      0.04112148      -0.01026202      -0.00335369
  |                                 -0.01026202       0.04753598       0.00207461
  |                                 -0.00335369       0.00207461       0.02588175
  ----------------------------------------------------------------------
  | Atom    13: H
  |   Hirshfeld charge        :      0.08937404
  |   Free atom volume        :     10.44207651
  |   Hirshfeld volume        :      9.08379748
  |   Hirshfeld dipole vector :     -0.01691770       0.01968248      -0.00493530
  |   Hirshfeld dipole moment :      0.02641904
  |   Hirshfeld second moments:      0.03728267       0.01508911      -0.01580023
  |                                  0.01508911       0.04290317       0.00773077
  |                                 -0.01580023       0.00773077       0.07102650
  ----------------------------------------------------------------------
  | Atom    14: O
  |   Hirshfeld charge        :     -0.22948989
  |   Free atom volume        :     23.95238533
  |   Hirshfeld volume        :     21.37246805
  |   Hirshfeld dipole vector :     -0.01182624       0.00094349       0.00725492
  |   Hirshfeld dipole moment :      0.01390626
  |   Hirshfeld second moments:      0.06502652       0.02238160       0.00004550
  |                                  0.02238160       0.04495081       0.00577428
  |                                  0.00004550       0.00577428       0.04675443
  ----------------------------------------------------------------------
  | Atom    15: H
  |   Hirshfeld charge        :      0.11442248
  |   Free atom volume        :     10.44207651
  |   Hirshfeld volume        :     10.42288097
  |   Hirshfeld dipole vector :      0.04803929       0.03850503       0.01495139
  |   Hirshfeld dipole moment :      0.06335578
  |   Hirshfeld second moments:      0.03742212      -0.00084634      -0.00952242
  |                                 -0.00084634       0.03631552      -0.00293139
  |                                 -0.00952242      -0.00293139       0.04966841
  ----------------------------------------------------------------------
  | Atom    16: H
  |   Hirshfeld charge        :      0.08919486
  |   Free atom volume        :     10.44207651
  |   Hirshfeld volume        :      8.96588751
  |   Hirshfeld dipole vector :     -0.02928027      -0.01275252       0.01813353
  |   Hirshfeld dipole moment :      0.03672582
  |   Hirshfeld second moments:      0.05241577      -0.00198669       0.02089496
  |                                 -0.00198669       0.06397426       0.01202071
  |                                  0.02089496       0.01202071       0.04747995
  ----------------------------------------------------------------------
  | Atom    17: O
  |   Hirshfeld charge        :     -0.27465736
  |   Free atom volume        :     23.95238533
  |   Hirshfeld volume        :     22.90136989
  |   Hirshfeld dipole vector :      0.02979870       0.02077989       0.03582722
  |   Hirshfeld dipole moment :      0.05102309
  |   Hirshfeld second moments:      0.00991327      -0.01697711      -0.01826121
  |                                 -0.01697711       0.02211646      -0.05259721
  |                                 -0.01826121      -0.05259721      -0.01478647
  ----------------------------------------------------------------------
  | Atom    18: H
  |   Hirshfeld charge        :      0.08622453
  |   Free atom volume        :     10.44207651
  |   Hirshfeld volume        :      9.21230763
  |   Hirshfeld dipole vector :      0.04543503      -0.01883026       0.01931488
  |   Hirshfeld dipole moment :      0.05283924
  |   Hirshfeld second moments:      0.04054869       0.01312592      -0.02329848
  |                                  0.01312592       0.06292971      -0.00734597
  |                                 -0.02329848      -0.00734597       0.04431995
  ----------------------------------------------------------------------
  | Atom    19: H
  |   Hirshfeld charge        :      0.11126839
  |   Free atom volume        :     10.44207651
  |   Hirshfeld volume        :      9.88592467
  |   Hirshfeld dipole vector :      0.02741569       0.07428342      -0.03373667
  |   Hirshfeld dipole moment :      0.08606863
  |   Hirshfeld second moments:      0.06046302      -0.01620721      -0.00286214
  |                                 -0.01620721       0.04181741      -0.01788620
  |                                 -0.00286214      -0.01788620       0.04433731
  ----------------------------------------------------------------------
  | Atom    20: O
  |   Hirshfeld charge        :     -0.24099370
  |   Free atom volume        :     23.95238533
  |   Hirshfeld volume        :     22.06956160
  |   Hirshfeld dipole vector :      0.02986499       0.02513289       0.01014937
  |   Hirshfeld dipole moment :      0.04033100
  |   Hirshfeld second moments:      0.02032578      -0.03756008      -0.03504440
  |                                 -0.03756008       0.03261273      -0.00917391
  |                                 -0.03504440      -0.00917391       0.04153581
  ----------------------------------------------------------------------
  | Atom    21: H
  |   Hirshfeld charge        :      0.12501405
  |   Free atom volume        :     10.44207651
  |   Hirshfeld volume        :      9.01106114
  |   Hirshfeld dipole vector :     -0.04542800       0.06729182       0.04663589
  |   Hirshfeld dipole moment :      0.09363119
  |   Hirshfeld second moments:      0.06756827      -0.00589919      -0.01031389
  |                                 -0.00589919       0.06548114      -0.01261578
  |                                 -0.01031389      -0.01261578       0.07063084
  ----------------------------------------------------------------------
  | Atom    22: H
  |   Hirshfeld charge        :      0.10164905
  |   Free atom volume        :     10.44207651
  |   Hirshfeld volume        :      9.27493460
  |   Hirshfeld dipole vector :      0.02046928       0.03131852      -0.02513439
  |   Hirshfeld dipole moment :      0.04507304
  |   Hirshfeld second moments:      0.04993702      -0.02587928       0.00808629
  |                                 -0.02587928       0.06546695       0.00349921
  |                                  0.00808629       0.00349921       0.03237877
  ----------------------------------------------------------------------


------------------------------------------------------------------------------
  Final output of selected total energy values:

  The following output summarizes some interesting total energy values
  at the end of a run (AFTER all relaxation, molecular dynamics, etc.).

  | Total energy of the DFT / Hartree-Fock s.c.f. calculation      :         -14596.551599417 eV
  | Final zero-broadening corrected energy (caution - metals only) :         -14596.554420365 eV
  | For reference only, the value of 1 Hartree used in FHI-aims is :             27.211384500 eV

  Before relying on these values, please be sure to understand exactly which
  total energy value is referred to by a given number. Different objects may
  all carry the same name 'total energy'. Definitions:

  Total energy of the DFT / Hartree-Fock s.c.f. calculation:
  | Note that this energy does not include ANY quantities calculated after the
  | s.c.f. cycle, in particular not ANY RPA, MP2, etc. many-body perturbation terms.

  Final zero-broadening corrected energy:
  | For metallic systems only, a broadening of the occupation numbers at the Fermi
  | level can be extrapolated back to zero broadening by an electron-gas inspired
  | formula. For all systems that are not real metals, this value can be
  | meaningless and should be avoided.

------------------------------------------------------------------------------

------------------------------------------------------------
          Leaving FHI-aims.
          Date     :  20150727, Time     :  121251.166

          Computational steps:
          | Number of self-consistency cycles          :           17

          Detailed time accounting                     :  max(cpu_time)    wall_clock(cpu1)
          | Total time                                 :       97.463 s          97.517 s
          | Preparation time                           :        0.173 s           0.572 s
          | Grid partitioning                          :        0.211 s           0.211 s
          | Preloading free-atom quantities on grid    :        0.013 s           0.013 s
          | Free-atom superposition energy             :        0.124 s           0.125 s
          | Total time for integrations                :       41.404 s          41.408 s
          | Total time for solution of K.-S. equations :        2.636 s           2.636 s
          | Total time for density & force components  :       36.382 s          36.377 s
          | Total time for mixing                      :        0.335 s           0.334 s
          | Total time for Hartree multipole update    :        0.119 s           0.119 s
          | Total time for Hartree multipole sum       :       15.041 s          15.041 s
          | Total time for total energy evaluation     :        0.009 s           0.028 s
          | Total time for scaled ZORA corrections     :        0.000 s           0.000 s
          | Total time for TS (2009) vdW correction    :        0.112 s           0.116 s

          Have a nice day.
------------------------------------------------------------
