  MPI-parallelism will be employed.
------------------------------------------------------------
          Invoking FHI-aims ...
          Version 081213
          Compiled on 2013/08/29 at 17:41:06 on host generoso.

          When using FHI-aims, please cite the following reference:

          Volker Blum, Ralf Gehrke, Felix Hanke, Paula Havu,
          Ville Havu, Xinguo Ren, Karsten Reuter, and Matthias Scheffler,
          'Ab Initio Molecular Simulations with Numeric Atom-Centered Orbitals: FHI-aims',
          Computer Physics Communications 180, 2175-2196 (2009)

          For any questions about FHI-aims, please visit the aimsclub website
          with its forums and wiki. Contributions to both the forums and the
          wiki are warmly encouraged - they are for you, and everyone is welcome there.

------------------------------------------------------------

  Date     :  20150727, Time     :  130438.349
  Time zero on CPU 1             :   0.499920000000000E-01  s.
  Internal wall clock time zero  :           207234278.349  s.

  Using        8 parallel tasks.
  Task        0 on host gen59 reporting.
  Task        1 on host gen59 reporting.
  Task        2 on host gen59 reporting.
  Task        3 on host gen59 reporting.
  Task        4 on host gen59 reporting.
  Task        5 on host gen59 reporting.
  Task        6 on host gen59 reporting.
  Task        7 on host gen59 reporting.

  Performing system and environment tests:
  | Environment variable OMP_NUM_THREADS correctly set to 1.
  | Checking for scalapack...
  | No scalapack compiled in.

  Obtaining array dimensions for all initial allocations:
  
  -----------------------------------------------------------------------
  Parsing control.in (first pass over file, find array dimensions only).
  The contents of control.in will be repeated verbatim below
  unless switched off by setting 'verbatim_writeout .false.' .
  in the first line of control.in .
  -----------------------------------------------------------------------
  
  #########################################################################################
  #
  #  Volker Blum, FHI 2008 : Test run input file control.in
  #
  #########################################################################################
  #
  #  Physical model
  #
    xc                 rpbe
    spin               none
    relativistic       atomic_zora scalar
    charge             0.
   vdw_correction_hirshfeld
  #
  #  SCF convergence
  #
    occupation_type    gaussian 0.01
    mixer              pulay
      n_max_pulay        10
      charge_mix_param   0.1
    sc_accuracy_rho    5E-5
    sc_accuracy_eev    5E-3
    sc_accuracy_etot   5E-6
    sc_iter_limit      3000
  #
  #  Eigenvalue solver
  #
    KS_method          lapack
      empty_states       8
      basis_threshold    0.e-5
  #
  #  Efficiency
  #
  #   all previous settings are now default, except stratmann still
  #   undecided. Continue to handle stratmann with care, if at all.
  #
  #  partition_type stratmann
    partition_type rho_r2
  #  hartree_partition_type stratmann
  #
  #  Oprions for large clusters (100's of atoms: memory saving / better scaling)
  #
  # for periodic systems:
  #
    density_update_method orbital
    packed_matrix_format none
  #  k_grid 6 6 6
  #  output k_eigenvalue 1
  #  distributed_spline_storage .true.
  #
  #  Relaxation
  #
  #  relax_geometry   bfgs 5.e-3
    sc_accuracy_forces 5.E-4
    final_forces_cleaned .true.
  #
  #  Output options
  #
  #  output mulliken
    output Hirshfeld
  #  output dipole
  
  #harmonic_length_scale 0.001
  
  ################################################################################
  #
  #  FHI-aims code project
  #  VB, Fritz-Haber Institut, 2007
  #
  #  Suggested "safe" defaults for H atom (to be pasted into control.in file)
  #  Basis constructed for a non-relativistic H2 molecule using the
  #  PW-LDA functional.
  #
  ################################################################################
    species        H
  #     global species definitions
      nucleus             1
      cut_pot             4.0  2.0  1.0
      cut_free_atom       finite 8.0
      logarithmic         0.00010000 100.00  1.0123
      basis_dep_cutoff    1d-4  # 1d-4 is safe default - please check 5d-4 if you wish!
      radial_base         24 7.0
      radial_multiplier   2
      angular_grids       specified
        division   0.2783  110
        division   0.3822  194
        division   0.5626  302
  #      division   0.5922  434
  #      division   0.6227  590
  #      division   0.7206  770
        outer_grid  302
      l_hartree           4
  ################################################################################
  #
  #  Definition of "minimal" basis
  #
  ################################################################################
  #     valence basis states
      valence      1  s   1.
  #     ion occupancy
      ion_occ      1  s   0.5
  ################################################################################
  #
  #  Suggested additional basis functions. For production calculations,
  #  uncomment them one after another (the most important basis functions are
  #  listed first).
  #
  ################################################################################
  #  "First tier" - improvements: -1014.90 meV to -62.69 meV
       hydro 2 s 2.1
       hydro 2 p 3.5
  #  "Second tier" - improvements: -12.89 meV to -1.83 meV
       hydro 1 s 0.85
       hydro 2 p 3.7
       hydro 2 s 1.2
       hydro 3 d 7
  #  "Third tier" - improvements: -0.25 meV to -0.12 meV
  #     hydro 4 f 11.2
  #     hydro 3 p 4.8
  #     hydro 4 d 9
  #     hydro 3 s 3.2
  
  ################################################################################
  #
  #  FHI-aims code project
  #  VB, Fritz-Haber Institut, 2007
  #
  #  Suggested "safe" defaults for O atom (to be pasted into control.in file)
  #  All values have been tested for a non-relativistic, non-spinpolarized O2
  #  molecule using the PW-LDA functional. Validity for PBE is expected.
  #
  #  Constructed for dimers: 1.0 A, 1.208 A, 1.5 A, 2.0 A, 3.0 A
  #
  ################################################################################
    species        O
  #     global species definitions
      nucleus             8
      mass                15.9994
      l_hartree           4
      cut_pot             4.0  2.0  1.0
      cut_free_atom       finite 8.0
      basis_dep_cutoff    1d-4  # 1d-4 is safe default - please check 5d-4 if you wish!
      logarithmic         0.00010000 100.00  1.0123
      radial_base         36 7.0
      radial_multiplier   2
       angular_grids specified
        division   0.4087  110
        division   0.5181  194
        division   0.6184  302
  #      division   0.7315  434
  #      division   0.7934  590
  #      division   0.9656  770
  #      division   1.4041  974
  #      outer_grid 974
        outer_grid 302
  ################################################################################
  #
  #  Definition of "minimal" basis
  #
  ################################################################################
  #     valence basis states
      valence      2  s   2.
      valence      2  p   4.
  #     ion occupancy
      ion_occ      2  s   1.
      ion_occ      2  p   3.
  ################################################################################
  #
  #  Suggested additional basis functions. For production calculations,
  #  uncomment them one after another (the most important basis functions are
  #  listed first).
  #
  ################################################################################
  #  "First tier" - improvements: -699.05 meV to -159.38 meV
       hydro 2 p 1.8
       hydro 3 d 7.6
       hydro 3 s 6.4
  #  "Second tier" - improvements: -49.91 meV to -5.39 meV
       hydro 4 f 11.6
       hydro 3 p 6.2
       hydro 3 d 5.6
       hydro 5 g 17.6
       hydro 1 s 0.75
  #  "Third tier" - improvements: -2.83 meV to -0.50 meV
  #     ionic 2 p auto
  #     hydro 4 f 10.8
  #     hydro 4 d 4.7
  #     hydro 2 s 6.8
  #  "Fourth tier" - improvements: -0.40 meV to -0.12 meV
  #     hydro 3 p 5
  #     hydro 3 s 3.3
  #     hydro 5 g 15.6
  #     hydro 4 f 17.6
  #     hydro 4 d 14
  # Further basis functions - -0.08 meV and below
  #     hydro 3 s 2.1
  #     hydro 4 d 11.6
  #     hydro 3 p 16
  #     hydro 2 s 17.2
  
  
  -----------------------------------------------------------------------
  Completed first pass over input file control.in .
  -----------------------------------------------------------------------
  
  
  -----------------------------------------------------------------------
  Parsing geometry.in (first pass over file, find array dimensions only).
  The contents of geometry.in will be repeated verbatim below
  unless switched off by setting 'verbatim_writeout .false.' .
  in the first line of geometry.in .
  -----------------------------------------------------------------------
  
  atom      -4.053030000      0.065001000     -1.525160000  O
  atom      -4.566710000      0.974813000     -1.912820000  H
  atom      -3.067820000      0.330172000     -1.477310000  H
  atom      -4.370360000     -0.049164000     -0.572274000  H
  atom      -1.975360000      2.858040000      0.453140000  O
  atom      -1.223550000      3.375850000      0.786238000  H
  atom      -2.537520000      2.567960000      1.156120000  H
  atom      -5.628340000      3.730740000      1.385610000  O
  atom      -6.090650000      4.418470000      1.860350000  H
  atom      -5.158540000      4.200260000      0.615875000  H
  
  -----------------------------------------------------------------------
  Completed first pass over input file geometry.in .
  -----------------------------------------------------------------------
  
 
  Basic array size parameters: 
  | Number of species                 :        2
  | Number of atoms                   :       10
  | Max. basis fn. angular momentum   :        4
  | Max. atomic/ionic basis occupied n:        2
  | Max. number of basis fn. types    :        2
  | Max. radial fns per species/type  :        8
  | Max. logarithmic grid size        :     1301
  | Max. radial integration grid size :       73
  | Max. angular integration grid size:      302
  | Max. angular grid division number :        8
  | Radial grid for Hartree potential :     1301
  | Number of spin channels           :        1

------------------------------------------------------------
          Reading file control.in.
------------------------------------------------------------
  XC: Using RPBE gradient-corrected functionals.
  Spin treatment: No spin polarisation.
  Scalar relativistic treatment of kinetic energy: on-site free-atom approximation to ZORA.
  Charge =   0.000000E+00: Neutral system requested explicitly.
  Using non-empirical van der Waals correction (Hirshfeld partitioning):
  Occupation type: Gaussian broadening, width =   0.100000E-01 eV.
  Using pulay charge density mixing.
  Pulay mixing - number of memorized iterations:   10
  Charge density mixing - mixing parameter:     0.1000
  Convergence accuracy of self-consistent charge density: 0.5000E-04
  Convergence accuracy of sum of eigenvalues: 0.5000E-02
  Convergence accuracy of total energy: 0.5000E-05
  Maximum number of s.-c. iterations  :  3000
  Kohn-Sham eigenvalues and eigenfunctions calculated by lapack diagonalisation (D&C).
  Number of empty states per atom:        8
  Threshold for basis singularities: 0.0000E+00
  Partition function in integrals calculations: rho / r^2
 Using packed matrix format           0
  Convergence accuracy of forces: 0.5000E-03
  Cleaning forces before final output.
  Hirshfeld charge analysis will be performed.
 
  Reading configuration options for species H                   .
  | Found nuclear charge :   1.0000
  | Found cutoff potl. onset [A], width [A], scale factor :    4.00000    2.00000    1.00000
  | Found cutoff specification for free atom: Cutoff potential begins at    8.00000 A.
  | Found logarithmic grid data [bohr] : 0.1000E-03 0.1000E+03 0.1012E+01
  | Threshold for basis-dependent cutoff potential is   0.100000E-03
  | Found data for basic radial integration grid :    24 points, outermost radius =    7.000 A
  | Found multiplier for basic radial grid :   2
  | Found angular grid specification: user-specified.
  | Specified grid contains     4 separate shells.
  | Check grid settings after all constraints further below.
  | Found l_max for Hartree potential  :   4
  | Found free-atom valence shell :  1 s   1.000
  | No ionic wave fns used. Skipping ion_occ.
  | Found hydrogenic basis function :  2 s   2.100
  | Found hydrogenic basis function :  2 p   3.500
  | Found hydrogenic basis function :  1 s   0.850
  | Found hydrogenic basis function :  2 p   3.700
  | Found hydrogenic basis function :  2 s   1.200
  | Found hydrogenic basis function :  3 d   7.000
  Species H                   : Missing cutoff potential type.
  Defaulting to exp(1/x)/(1-x)^2 type cutoff potential.
  Species H : On-site basis accuracy parameter (for Gram-Schmidt orthonormalisation) not specified.
  Using default value basis_acc =  0.1000000E-03.
  Species H                   : Using default innermost maximum threshold i_radial=  2 for radial functions.
  Species H                   : Basic radial grid will be enhanced according to radial_multiplier =   2, to contain    49 grid points.
 
  Reading configuration options for species O                   .
  | Found nuclear charge :   8.0000
  | Found atomic mass :    15.9994000000000      amu
  | Found l_max for Hartree potential  :   4
  | Found cutoff potl. onset [A], width [A], scale factor :    4.00000    2.00000    1.00000
  | Found cutoff specification for free atom: Cutoff potential begins at    8.00000 A.
  | Threshold for basis-dependent cutoff potential is   0.100000E-03
  | Found logarithmic grid data [bohr] : 0.1000E-03 0.1000E+03 0.1012E+01
  | Found data for basic radial integration grid :    36 points, outermost radius =    7.000 A
  | Found multiplier for basic radial grid :   2
  | Found angular grid specification: user-specified.
  | Specified grid contains     4 separate shells.
  | Check grid settings after all constraints further below.
  | Found free-atom valence shell :  2 s   2.000
  | Found free-atom valence shell :  2 p   4.000
  | No ionic wave fns used. Skipping ion_occ.
  | No ionic wave fns used. Skipping ion_occ.
  | Found hydrogenic basis function :  2 p   1.800
  | Found hydrogenic basis function :  3 d   7.600
  | Found hydrogenic basis function :  3 s   6.400
  | Found hydrogenic basis function :  4 f  11.600
  | Found hydrogenic basis function :  3 p   6.200
  | Found hydrogenic basis function :  3 d   5.600
  | Found hydrogenic basis function :  5 g  17.600
  | Found hydrogenic basis function :  1 s   0.750
  Species O                   : Missing cutoff potential type.
  Defaulting to exp(1/x)/(1-x)^2 type cutoff potential.
  Species O : On-site basis accuracy parameter (for Gram-Schmidt orthonormalisation) not specified.
  Using default value basis_acc =  0.1000000E-03.
  Species O                   : Using default innermost maximum threshold i_radial=  2 for radial functions.
  Species O                   : Basic radial grid will be enhanced according to radial_multiplier =   2, to contain    73 grid points.
 
  Finished reading input file 'control.in'. Consistency checks are next.
 
  Target number of points in a grid batch is not set. Defaulting to  100
  Method for grid partitioning is not set. Defaulting to parallel hash+maxmin partitioning.
  Batch size limit is not set. Defaulting to    200
  By default, will store active basis functions for each batch.
  If in need of memory, prune_basis_once .false. can be used to disable this option.
  communication_type for Hartree potential was not specified.
  Defaulting to calc_hartree .
  Pulay mixer: Number of initial linear mixing iterations not set.
  Defaulting to    0 iterations.
  Work space size for distributed Hartree potential not set.
  Defaulting to   0.200000E+03 MB.
  Algorithm-dependent basis array size parameters:
  | n_max_pulay                         :       10
  Geometry relaxation not requested: no relaxation will be performed.
  Handling of forces: Unphysical translation and rotation will be removed from forces.
  No accuracy limit for integral partition fn. given. Defaulting to 0.1000E-14.
  No threshold value for u(r) in integrations given. Defaulting to 0.1000E-05.
  No accuracy for occupation numbers given. Defaulting to 0.1000E-07.
  No threshold value for occupation numbers given. Defaulting to 0.0000E+00.
  No accuracy for fermi level given. Defaulting to 0.1000E-19.
  Maximum # of iterations to find E_F not set. Defaulting to  200.
  Will not use alltoall communication since running on < 1024 CPUs.
  Partitioning for Hartree potential was not defined. Using partition_type for integrals.
  | Reporting present value of keyword multip_moments_threshold  :       0.10000000E-09
  | This value may affect high angular momentum components of the Hartree potential in periodic systems.
  No q(lm)/r^(l+1) cutoff set for long-range Hartree potential.
  | Using default value of  0.100000E-09 .
  | Verify using the multipole_threshold keyword.
  Defaulting to new monopole extrapolation.
  Density update method: Loop over occupied states selected for charge density update.
------------------------------------------------------------


------------------------------------------------------------
          Reading geometry description geometry.in.
------------------------------------------------------------
  Input structure read successfully.
  The structure contains       10 atoms,  and a total of         31.000 electrons.

  Input geometry:
  | No unit cell requested.
  | Atomic structure:
  |       Atom                x [A]            y [A]            z [A]
  |    1: Species O             -4.053030         0.065001        -1.525160
  |    2: Species H             -4.566710         0.974813        -1.912820
  |    3: Species H             -3.067820         0.330172        -1.477310
  |    4: Species H             -4.370360        -0.049164        -0.572274
  |    5: Species O             -1.975360         2.858040         0.453140
  |    6: Species H             -1.223550         3.375850         0.786238
  |    7: Species H             -2.537520         2.567960         1.156120
  |    8: Species O             -5.628340         3.730740         1.385610
  |    9: Species H             -6.090650         4.418470         1.860350
  |   10: Species H             -5.158540         4.200260         0.615875
  |

  | The smallest distance between any two atoms is         0.94570141 AA.
  |
  | The first atom of this pair is atom number                      5 .
  | The second atom of this pair is atom number                     7 .

  Structure-dependent array size parameters: 
  | Maximum number of distinct radial functions  :       18
  | Maximum number of basis functions            :      222
  | Number of Kohn-Sham states (occupied + empty):       56
------------------------------------------------------------

------------------------------------------------------------
          Preparing all fixed parts of the calculation.
------------------------------------------------------------
  Determining machine precision:
    2.225073858507201E-308
  Setting up grids for atomic and cluster calculations.

  Creating wave function, potential, and density for free atoms.

  Species: H

  List of occupied orbitals and eigenvalues:
    n    l              occ      energy [Ha]    energy [eV]
    1    0           1.0000        -0.241408        -6.5691


  Species: O

  List of occupied orbitals and eigenvalues:
    n    l              occ      energy [Ha]    energy [eV]
    1    0           2.0000       -18.944147      -515.4965
    2    0           2.0000        -0.883529       -24.0421
    2    1           4.0000        -0.330176        -8.9845

  Creating fixed part of basis set: Ionic, confined, hydrogenic.
 
  H                    hydrogenic:
 
  List of hydrogenic basis orbitals: 
    n    l      effective z      eigenvalue [eV]  inner max. [A]     outer max. [A]     outer radius [A]   
    2    0         2.100000       -14.9965           0.193241           1.317192           5.372934
    2    1         3.500000       -41.6672           0.602363           0.602363           4.056010
    1    0         0.850000        -9.8292           0.624864           0.624864           5.372934
    2    1         3.700000       -46.5653           0.573616           0.573616           3.909951
    2    0         1.200000        -4.5995           0.334977           2.228160           5.505921
    3    2         7.000000       -74.0753           0.680692           0.680692           3.769152
 
 
  O                    hydrogenic:
 
  List of hydrogenic basis orbitals: 
    n    l      effective z      eigenvalue [eV]  inner max. [A]     outer max. [A]     outer radius [A]   
    2    1         1.800000       -11.0118           1.178546           1.178546           5.432516
    3    2         7.600000       -87.3182           0.624117           0.624117           3.541422
    3    0         6.400000       -61.9209           0.061166           1.081887           4.306510
    4    3        11.600000      -114.4238           0.731621           0.731621           3.584982
    3    1         6.200000       -58.1113           0.255677           1.030255           4.306510
    3    2         5.600000       -47.4081           0.847222           0.847222           4.413102
    5    4        17.600000      -168.5799           0.749730           0.749730           3.372413
    1    0         0.750000        -7.6499           0.705275           0.705275           5.366508
 

  Adding cutoff potential to free-atom effective potential.
  Creating atomic-like basis functions for current effective potential.

  Species H                   :

  List of atomic basis orbitals and eigenvalues:
    n    l      energy [Ha]    energy [eV]    outer radius [A]
    1    0        -0.241374        -6.5681       5.372934


  Species O                   :

  List of atomic basis orbitals and eigenvalues:
    n    l      energy [Ha]    energy [eV]    outer radius [A]
    1    0       -18.944147      -515.4965       1.415745
    2    0        -0.883529       -24.0421       5.048305
    2    1        -0.330173        -8.9845       5.301302

  Assembling full basis from fixed parts.
  | Species H :   atomic orbital   1 s accepted.
  | Species H :    hydro orbital   2 s accepted.
  | Species H :    hydro orbital   1 s accepted.
  | Species H :    hydro orbital   2 s accepted.
  | Species H :    hydro orbital   2 p accepted.
  | Species H :    hydro orbital   2 p accepted.
  | Species H :    hydro orbital   3 d accepted.
  | Species O :   atomic orbital   1 s accepted.
  | Species O :    hydro orbital   3 s accepted.
  | Species O :   atomic orbital   2 s accepted.
  | Species O :    hydro orbital   1 s accepted.
  | Species O :    hydro orbital   3 p accepted.
  | Species O :   atomic orbital   2 p accepted.
  | Species O :    hydro orbital   2 p accepted.
  | Species O :    hydro orbital   3 d accepted.
  | Species O :    hydro orbital   3 d accepted.
  | Species O :    hydro orbital   4 f accepted.
  | Species O :    hydro orbital   5 g accepted.
 
  Basis size parameters after reduction:
  | Total number of radial functions:       18
  | Total number of basis functions :      222
 
  Testing on-site integration grid accuracy.
  |  Species  Function  <phi|h_atom|phi> (log., in eV)  <phi|h_atom|phi> (rad., in eV)
           1        1                 -6.5683835025                 -6.5684759159
           1        2                 13.3711789951                 13.3708738703
           1        3                 23.6590910787                 23.6532055418
           1        4                 16.2963827186                 16.1870710655 ***
           1        5                 28.7627214838                 28.7627215090
           1        6                 59.5965249172                 59.5965950857
           1        7                 60.2220506392                 60.2220503827
           2        8               -515.4964576505               -515.4964530710
           2        9                 15.3030791347                 15.3030722972
           2       10                -21.7296094581                -21.7296135470
           2       11                 14.2969371730                 14.2969701621
           2       12                 21.0679693190                 21.0679697493
           2       13                 -2.3833606469                 -2.3833613176
           2       14                 13.7067136422                 13.7066766629
           2       15                 45.8013116808                 45.8013116965
           2       16                 52.2309815402                 52.2309831494
           2       17                 85.4120732416                 85.4120732763
           2       18                142.1019167745                142.1019167817
 * Note: Onsite integrals marked "***" above are less accurate than
 * onsite_accuracy_threshold =    0.03000 eV. Usually, this is harmless.
 * When in doubt, tighten the "radial" and/or "radial_multiplier" flags to check.

  Preparing densities etc. for the partition functions (integrals / Hartree potential).

  Preparations completed.
  max(cpu_time)          :      0.171 s.
  Wall clock time (cpu1) :      0.672 s.
------------------------------------------------------------

------------------------------------------------------------
          Begin self-consistency loop: Initialization.

          Date     :  20150727, Time     :  130439.070
------------------------------------------------------------

  Initializing index lists of integration centers etc. from given atomic structure:
  | Number of centers in hartree potential         :        10
  | Number of centers in hartree multipole         :        10
  | Number of centers in electron density summation:        10
  | Number of centers in basis integrals           :        10
  | Number of centers in integrals                 :        10
  Partitioning the integration grid into batches with parallel hashing+maxmin method.
  | Number of batches:     1249
  | Maximal batch size:     193
  | Minimal batch size:      50
  | Average batch size:     103.779
  | Standard deviation of batch sizes:      25.528

  Integration load balanced across     8 MPI tasks.
  Work distribution over tasks is as follows:
  Task     0 has      16228 integration points.
  Task     1 has      16189 integration points.
  Task     2 has      16206 integration points.
  Task     3 has      16187 integration points.
  Task     4 has      16228 integration points.
  Task     5 has      16206 integration points.
  Task     6 has      16136 integration points.
  Task     7 has      16240 integration points.
  Initializing partition tables, free-atom densities, potentials, etc. across the integration grid (initialize_grid_storage).
  | Net number of integration points:   129620
  | of which are non-zero points    :   129107
  Obtaining max. number of non-zero basis functions in each batch (get_n_compute_maxes).
  | Maximal number of non-zero basis functions:      220 in task     0
  | Maximal number of non-zero basis functions:      220 in task     1
  | Maximal number of non-zero basis functions:      220 in task     2
  | Maximal number of non-zero basis functions:      220 in task     3
  | Maximal number of non-zero basis functions:      220 in task     4
  | Maximal number of non-zero basis functions:      220 in task     5
  | Maximal number of non-zero basis functions:      220 in task     6
  | Maximal number of non-zero basis functions:      220 in task     7
  Integrating Hamiltonian matrix: batch-based integration.
  Time summed over all CPUs for integration: real work        2.516 s, elapsed        2.590 s
  Integrating overlap matrix.
  Time summed over all CPUs for integration: real work        1.307 s, elapsed        1.342 s

  Updating Kohn-Sham eigenvalues, eigenvectors, occupation numbers, and Fermi level.
  Solving generalized eigenproblem
  Updating Kohn-Sham eigenvalues and eigenfunctions.
  Transforming overlap matrix and checking for singularities.
  Overlap matrix is nonsingular:
  | Lowest eigenvalue:  0.352966E-03
  Solving real generalised eigenvalue problem by standard LAPACK (fast)
  Determining occupation numbers for Kohn-Sham eigenstates.
  | Chemical potential (Fermi level) in eV                 : -.29865197E+01
  | Error in electron count due to remaining E_F inaccuracy: -.41801229E-10
  | Maximum occupation number of highest empty state:  0.00E+00

  Writing Kohn-Sham eigenvalues.

  State    Occupation    Eigenvalue [Ha]    Eigenvalue [eV]
      1       2.00000         -19.064655         -518.77567
      2       2.00000         -19.054460         -518.49824
      3       2.00000         -19.044507         -518.22741
      4       2.00000          -1.118638          -30.43969
      5       2.00000          -1.103373          -30.02430
      6       2.00000          -1.089090          -29.63566
      7       2.00000          -0.646560          -17.59380
      8       2.00000          -0.626747          -17.05465
      9       2.00000          -0.618250          -16.82344
     10       2.00000          -0.598789          -16.29389
     11       2.00000          -0.501594          -13.64908
     12       2.00000          -0.501128          -13.63639
     13       2.00000          -0.489061          -13.30804
     14       2.00000          -0.438074          -11.92061
     15       2.00000          -0.430104          -11.70374
     16       1.00000          -0.109753           -2.98652
     17       0.00000          -0.073839           -2.00925
     18       0.00000          -0.055599           -1.51291
     19       0.00000          -0.034021           -0.92575
     20       0.00000          -0.020015           -0.54463
     21       0.00000          -0.003091           -0.08412
     22       0.00000           0.006590            0.17932
     23       0.00000           0.070290            1.91270
     24       0.00000           0.070669            1.92301
     25       0.00000           0.083079            2.26071
     26       0.00000           0.097574            2.65512
     27       0.00000           0.104807            2.85194
     28       0.00000           0.106217            2.89032
     29       0.00000           0.115827            3.15180
     30       0.00000           0.119292            3.24611
     31       0.00000           0.138425            3.76673
     32       0.00000           0.159429            4.33828
     33       0.00000           0.190161            5.17455
     34       0.00000           0.199138            5.41881
     35       0.00000           0.212809            5.79082
     36       0.00000           0.221184            6.01873
     37       0.00000           0.241412            6.56915
     38       0.00000           0.252636            6.87457
     39       0.00000           0.316014            8.59919
     40       0.00000           0.329953            8.97848
     41       0.00000           0.344227            9.36690
     42       0.00000           0.347558            9.45754
     43       0.00000           0.368383           10.02421
     44       0.00000           0.378576           10.30159
     45       0.00000           0.393441           10.70607
     46       0.00000           0.419146           11.40554
     47       0.00000           0.424699           11.55665
     48       0.00000           0.440035           11.97395
     49       0.00000           0.452199           12.30495
     50       0.00000           0.461912           12.56927
     51       0.00000           0.491587           13.37675
     52       0.00000           0.496538           13.51148
     53       0.00000           0.551012           14.99379
     54       0.00000           0.567518           15.44295
     55       0.00000           0.699835           19.04347
     56       0.00000           0.712619           19.39135

  Highest occupied state (VBM) at    -11.70373573 eV
  | Occupation number:      2.00000000

  Lowest unoccupied state (CBM) at    -2.98651966 eV
  | Occupation number:      1.00000000

  Overall HOMO-LUMO gap:      8.71721607 eV.
  Calculating total energy contributions from superposition of free atom densities.

  Total energy components:
  | Sum of eigenvalues            :        -130.75981926 Ha       -3558.15571901 eV
  | XC energy correction          :         -27.64734056 Ha        -752.32241435 eV
  | XC potential correction       :          35.32411853 Ha         961.21817131 eV
  | Free-atom electrostatic energy:        -107.22342680 Ha       -2917.69789393 eV
  | Hartree energy correction     :           0.00000000 Ha           0.00000000 eV
  | van der Waals energy corr.    :           0.00000000 Ha           0.00000000 eV
  | Entropy correction            :          -0.00010367 Ha          -0.00282095 eV
  | ---------------------------
  | Total energy                  :        -230.30646809 Ha       -6266.95785598 eV
  | Total energy, T -> 0          :        -230.30657176 Ha       -6266.96067693 eV  <-- do not rely on this value for anything but (periodic) metals
  | Electronic free energy        :        -230.30667542 Ha       -6266.96349787 eV

  Derived energy quantities:
  | Kinetic energy                :         228.05732050 Ha        6205.75543612 eV
  | Electrostatic energy          :        -430.71644803 Ha      -11720.39087775 eV
  | Energy correction for multipole
  | error in Hartree potential    :           0.00000000 Ha           0.00000000 eV
  | Sum of eigenvalues per atom                           :        -355.81557190 eV
  | Total energy (T->0) per atom                          :        -626.69606769 eV  <-- do not rely on this value for anything but (periodic) metals
  | Electronic free energy per atom                       :        -626.69634979 eV
  Initialize hartree_potential_storage
  Max. number of atoms included in rho_multipole:           10

  End scf initialization - timings             :  max(cpu_time)    wall_clock(cpu1)
  | Time for scf. initialization               :        0.783 s           0.782 s
  | Boundary condition initialization          :        0.001 s           0.005 s
  | Integration                                :        0.493 s           0.493 s
  | Solution of K.-S. eqns.                    :        0.074 s           0.074 s
  | Grid partitioning                          :        0.098 s           0.098 s
  | Preloading free-atom quantities on grid    :        0.013 s           0.014 s
  | Free-atom superposition energy             :        0.034 s           0.034 s
  | Total energy evaluation                    :        0.000 s           0.001 s
------------------------------------------------------------

------------------------------------------------------------
          Begin self-consistency iteration #    1

  Date     :  20150727, Time     :  130439.853
------------------------------------------------------------
  Evaluating new KS density.
  Integration grid: deviation in total charge (<rho> - N_e) =  -4.179057E-11
  Pulay mixing of updated and previous charge densities.

  Evaluating partitioned Hartree potential by multipole expansion.
  | Analytical far-field extrapolation by fixed multipoles:
  | Hartree multipole sum: apparent total charge =  -0.641138E-06
  Summing up the Hartree potential.
  Time summed over all CPUs for potential: real work        1.144 s, elapsed        1.153 s
  | RMS charge density error from multipole expansion :   0.130974E-02

  Integrating Hamiltonian matrix: batch-based integration.
  Time summed over all CPUs for integration: real work        2.509 s, elapsed        2.578 s

  Updating Kohn-Sham eigenvalues, eigenvectors, occupation numbers, and Fermi level.
  Solving generalized eigenproblem
  Updating Kohn-Sham eigenvalues and eigenfunctions.
  Solving real generalised eigenvalue problem by standard LAPACK (fast)
  Determining occupation numbers for Kohn-Sham eigenstates.
  | Chemical potential (Fermi level) in eV                 : -.28453958E+01
  | Error in electron count due to remaining E_F inaccuracy: -.23021585E-11
  | Maximum occupation number of highest empty state:  0.00E+00

  Writing Kohn-Sham eigenvalues.

  State    Occupation    Eigenvalue [Ha]    Eigenvalue [eV]
      1       2.00000         -19.015299         -517.43262
      2       2.00000         -18.972846         -516.27741
      3       2.00000         -18.965699         -516.08293
      4       2.00000          -1.096629          -29.84079
      5       2.00000          -1.062826          -28.92096
      6       2.00000          -1.049785          -28.56610
      7       2.00000          -0.611579          -16.64192
      8       2.00000          -0.608330          -16.55351
      9       2.00000          -0.584580          -15.90724
     10       2.00000          -0.580190          -15.78778
     11       2.00000          -0.466429          -12.69218
     12       2.00000          -0.462142          -12.57554
     13       2.00000          -0.459918          -12.51500
     14       2.00000          -0.395918          -10.77348
     15       2.00000          -0.388867          -10.58160
     16       1.00000          -0.104566           -2.84540
     17       0.00000          -0.066123           -1.79929
     18       0.00000          -0.048277           -1.31368
     19       0.00000          -0.028538           -0.77655
     20       0.00000          -0.014838           -0.40375
     21       0.00000           0.004792            0.13041
     22       0.00000           0.013951            0.37964
     23       0.00000           0.072886            1.98333
     24       0.00000           0.074590            2.02971
     25       0.00000           0.086584            2.35608
     26       0.00000           0.103688            2.82148
     27       0.00000           0.112540            3.06237
     28       0.00000           0.113483            3.08804
     29       0.00000           0.122355            3.32945
     30       0.00000           0.126988            3.45553
     31       0.00000           0.147558            4.01525
     32       0.00000           0.167306            4.55263
     33       0.00000           0.196952            5.35933
     34       0.00000           0.206381            5.61591
     35       0.00000           0.216455            5.89005
     36       0.00000           0.225758            6.14319
     37       0.00000           0.247144            6.72514
     38       0.00000           0.259350            7.05727
     39       0.00000           0.322873            8.78581
     40       0.00000           0.337048            9.17155
     41       0.00000           0.348765            9.49039
     42       0.00000           0.352885            9.60249
     43       0.00000           0.372669           10.14083
     44       0.00000           0.381937           10.39305
     45       0.00000           0.400518           10.89866
     46       0.00000           0.427014           11.61965
     47       0.00000           0.433693           11.80139
     48       0.00000           0.449981           12.24460
     49       0.00000           0.461501           12.55809
     50       0.00000           0.470421           12.80080
     51       0.00000           0.501254           13.63981
     52       0.00000           0.505389           13.75234
     53       0.00000           0.562413           15.30405
     54       0.00000           0.579915           15.78029
     55       0.00000           0.710173           19.32478
     56       0.00000           0.716969           19.50973

  Highest occupied state (VBM) at    -10.58159895 eV
  | Occupation number:      2.00000000

  Lowest unoccupied state (CBM) at    -2.84539578 eV
  | Occupation number:      1.00000000

  Overall HOMO-LUMO gap:      7.73620317 eV.

  Total energy components:
  | Sum of eigenvalues            :        -129.54664214 Ha       -3525.14349004 eV
  | XC energy correction          :         -27.78118507 Ha        -755.96450876 eV
  | XC potential correction       :          35.49938278 Ha         965.98735434 eV
  | Free-atom electrostatic energy:        -107.22342680 Ha       -2917.69789393 eV
  | Hartree energy correction     :          -1.17704521 Ha         -32.02902965 eV
  | van der Waals energy corr.    :           0.00000000 Ha           0.00000000 eV
  | Entropy correction            :          -0.00010367 Ha          -0.00282095 eV
  | ---------------------------
  | Total energy                  :        -230.22891643 Ha       -6264.84756804 eV
  | Total energy, T -> 0          :        -230.22902010 Ha       -6264.85038898 eV  <-- do not rely on this value for anything but (periodic) metals
  | Electronic free energy        :        -230.22912377 Ha       -6264.85320993 eV

  Derived energy quantities:
  | Kinetic energy                :         228.88020309 Ha        6228.14721085 eV
  | Electrostatic energy          :        -431.32793446 Ha      -11737.03027013 eV
  | Energy correction for multipole
  | error in Hartree potential    :           0.00038387 Ha           0.01044572 eV
  | Sum of eigenvalues per atom                           :        -352.51434900 eV
  | Total energy (T->0) per atom                          :        -626.48503890 eV  <-- do not rely on this value for anything but (periodic) metals
  | Electronic free energy per atom                       :        -626.48532099 eV

  Self-consistency convergence accuracy:
  | Change of charge density      : 0.5002E+00
  | Change of sum of eigenvalues  : 0.3301E+02 eV
  | Change of total energy        : 0.2110E+01 eV

  End self-consistency iteration #     1       :  max(cpu_time)    wall_clock(cpu1)
  | Time for this iteration                    :        0.723 s           0.722 s
  | Charge density update                      :        0.227 s           0.226 s
  | Density mixing                             :        0.002 s           0.002 s
  | Hartree multipole update                   :        0.004 s           0.004 s
  | Hartree multipole summation                :        0.145 s           0.145 s
  | Integration                                :        0.323 s           0.323 s
  | Solution of K.-S. eqns.                    :        0.018 s           0.019 s
  | Total energy evaluation                    :        0.001 s           0.001 s
------------------------------------------------------------

------------------------------------------------------------
          Begin self-consistency iteration #    2

  Date     :  20150727, Time     :  130440.577
------------------------------------------------------------
  Evaluating new KS density.
  Integration grid: deviation in total charge (<rho> - N_e) =  -2.277289E-12
  Pulay mixing of updated and previous charge densities.

  Evaluating partitioned Hartree potential by multipole expansion.
  | Analytical far-field extrapolation by fixed multipoles:
  | Hartree multipole sum: apparent total charge =  -0.240623E-05
  Summing up the Hartree potential.
  Time summed over all CPUs for potential: real work        1.143 s, elapsed        1.153 s
  | RMS charge density error from multipole expansion :   0.525920E-02

  Integrating Hamiltonian matrix: batch-based integration.
  Time summed over all CPUs for integration: real work        2.512 s, elapsed        2.592 s

  Updating Kohn-Sham eigenvalues, eigenvectors, occupation numbers, and Fermi level.
  Solving generalized eigenproblem
  Updating Kohn-Sham eigenvalues and eigenfunctions.
  Solving real generalised eigenvalue problem by standard LAPACK (fast)
  Determining occupation numbers for Kohn-Sham eigenstates.
  | Chemical potential (Fermi level) in eV                 : -.25166302E+01
  | Error in electron count due to remaining E_F inaccuracy: -.33619330E-10
  | Maximum occupation number of highest empty state:  0.00E+00

  Highest occupied state (VBM) at     -7.92399040 eV
  | Occupation number:      2.00000000

  Lowest unoccupied state (CBM) at    -2.51663021 eV
  | Occupation number:      1.00000000

  Overall HOMO-LUMO gap:      5.40736019 eV.

  Total energy components:
  | Sum of eigenvalues            :        -126.70825562 Ha       -3447.90706303 eV
  | XC energy correction          :         -28.11012817 Ha        -764.91550590 eV
  | XC potential correction       :          35.92933724 Ha         977.68701034 eV
  | Free-atom electrostatic energy:        -107.22342680 Ha       -2917.69789393 eV
  | Hartree energy correction     :          -4.02909944 Ha        -109.63737399 eV
  | van der Waals energy corr.    :           0.00000000 Ha           0.00000000 eV
  | Entropy correction            :          -0.00010367 Ha          -0.00282095 eV
  | ---------------------------
  | Total energy                  :        -230.14157279 Ha       -6262.47082651 eV
  | Total energy, T -> 0          :        -230.14167645 Ha       -6262.47364746 eV  <-- do not rely on this value for anything but (periodic) metals
  | Electronic free energy        :        -230.14178012 Ha       -6262.47646841 eV

  Derived energy quantities:
  | Kinetic energy                :         230.55049766 Ha        6273.59823846 eV
  | Electrostatic energy          :        -432.58194228 Ha      -11771.15355908 eV
  | Energy correction for multipole
  | error in Hartree potential    :           0.00109860 Ha           0.02989444 eV
  | Sum of eigenvalues per atom                           :        -344.79070630 eV
  | Total energy (T->0) per atom                          :        -626.24736475 eV  <-- do not rely on this value for anything but (periodic) metals
  | Electronic free energy per atom                       :        -626.24764684 eV

  Self-consistency convergence accuracy:
  | Change of charge density      : 0.3795E+00
  | Change of sum of eigenvalues  : 0.7724E+02 eV
  | Change of total energy        : 0.2377E+01 eV

  End self-consistency iteration #     2       :  max(cpu_time)    wall_clock(cpu1)
  | Time for this iteration                    :        0.721 s           0.721 s
  | Charge density update                      :        0.224 s           0.224 s
  | Density mixing                             :        0.004 s           0.004 s
  | Hartree multipole update                   :        0.003 s           0.003 s
  | Hartree multipole summation                :        0.144 s           0.145 s
  | Integration                                :        0.325 s           0.325 s
  | Solution of K.-S. eqns.                    :        0.019 s           0.019 s
  | Total energy evaluation                    :        0.000 s           0.001 s
------------------------------------------------------------

------------------------------------------------------------
          Begin self-consistency iteration #    3

  Date     :  20150727, Time     :  130441.299
------------------------------------------------------------
  Evaluating new KS density.
  Integration grid: deviation in total charge (<rho> - N_e) =  -3.361222E-11
  Pulay mixing of updated and previous charge densities.

  Evaluating partitioned Hartree potential by multipole expansion.
  | Analytical far-field extrapolation by fixed multipoles:
  | Hartree multipole sum: apparent total charge =  -0.200987E-05
  Summing up the Hartree potential.
  Time summed over all CPUs for potential: real work        1.144 s, elapsed        1.153 s
  | RMS charge density error from multipole expansion :   0.106618E-01

  Integrating Hamiltonian matrix: batch-based integration.
  Time summed over all CPUs for integration: real work        2.511 s, elapsed        2.593 s

  Updating Kohn-Sham eigenvalues, eigenvectors, occupation numbers, and Fermi level.
  Solving generalized eigenproblem
  Updating Kohn-Sham eigenvalues and eigenfunctions.
  Solving real generalised eigenvalue problem by standard LAPACK (fast)
  Determining occupation numbers for Kohn-Sham eigenstates.
  | Chemical potential (Fermi level) in eV                 : -.25948750E+01
  | Error in electron count due to remaining E_F inaccuracy: 0.31121772E-11
  | Maximum occupation number of highest empty state:  0.00E+00

  Highest occupied state (VBM) at     -2.59487498 eV
  | Occupation number:      1.00000000

  Lowest unoccupied state (CBM) at    -1.17909694 eV
  | Occupation number:      0.00000000

  Overall HOMO-LUMO gap:      1.41577804 eV.

  Total energy components:
  | Sum of eigenvalues            :        -127.02887740 Ha       -3456.63162545 eV
  | XC energy correction          :         -28.08062555 Ha        -764.11269897 eV
  | XC potential correction       :          35.88610238 Ha         976.51053000 eV
  | Free-atom electrostatic energy:        -107.22342680 Ha       -2917.69789393 eV
  | Hartree energy correction     :          -3.69361603 Ha        -100.50840591 eV
  | van der Waals energy corr.    :           0.00000000 Ha           0.00000000 eV
  | Entropy correction            :          -0.00010367 Ha          -0.00282095 eV
  | ---------------------------
  | Total energy                  :        -230.14044340 Ha       -6262.44009427 eV
  | Total energy, T -> 0          :        -230.14054706 Ha       -6262.44291521 eV  <-- do not rely on this value for anything but (periodic) metals
  | Electronic free energy        :        -230.14065073 Ha       -6262.44573616 eV

  Derived energy quantities:
  | Kinetic energy                :         229.38638046 Ha        6241.92099774 eV
  | Electrostatic energy          :        -431.44619830 Ha      -11740.24839304 eV
  | Energy correction for multipole
  | error in Hartree potential    :           0.00016248 Ha           0.00442125 eV
  | Sum of eigenvalues per atom                           :        -345.66316254 eV
  | Total energy (T->0) per atom                          :        -626.24429152 eV  <-- do not rely on this value for anything but (periodic) metals
  | Electronic free energy per atom                       :        -626.24457362 eV

  Self-consistency convergence accuracy:
  | Change of charge density      : 0.1902E+00
  | Change of sum of eigenvalues  : -.8725E+01 eV
  | Change of total energy        : 0.3073E-01 eV

  End self-consistency iteration #     3       :  max(cpu_time)    wall_clock(cpu1)
  | Time for this iteration                    :        0.722 s           0.721 s
  | Charge density update                      :        0.224 s           0.223 s
  | Density mixing                             :        0.004 s           0.004 s
  | Hartree multipole update                   :        0.004 s           0.004 s
  | Hartree multipole summation                :        0.145 s           0.145 s
  | Integration                                :        0.325 s           0.324 s
  | Solution of K.-S. eqns.                    :        0.018 s           0.018 s
  | Total energy evaluation                    :        0.001 s           0.000 s
------------------------------------------------------------

------------------------------------------------------------
          Begin self-consistency iteration #    4

  Date     :  20150727, Time     :  130442.020
------------------------------------------------------------
  Evaluating new KS density.
  Integration grid: deviation in total charge (<rho> - N_e) =   3.122835E-12
  Pulay mixing of updated and previous charge densities.

  Evaluating partitioned Hartree potential by multipole expansion.
  | Analytical far-field extrapolation by fixed multipoles:
  | Hartree multipole sum: apparent total charge =  -0.238885E-05
  Summing up the Hartree potential.
  Time summed over all CPUs for potential: real work        1.143 s, elapsed        1.152 s
  | RMS charge density error from multipole expansion :   0.143001E-01

  Integrating Hamiltonian matrix: batch-based integration.
  Time summed over all CPUs for integration: real work        2.500 s, elapsed        2.576 s

  Updating Kohn-Sham eigenvalues, eigenvectors, occupation numbers, and Fermi level.
  Solving generalized eigenproblem
  Updating Kohn-Sham eigenvalues and eigenfunctions.
  Solving real generalised eigenvalue problem by standard LAPACK (fast)
  Determining occupation numbers for Kohn-Sham eigenstates.
  | Chemical potential (Fermi level) in eV                 : -.24924721E+01
  | Error in electron count due to remaining E_F inaccuracy: 0.00000000E+00
  | Maximum occupation number of highest empty state:  0.00E+00

  Highest occupied state (VBM) at     -2.49247214 eV
  | Occupation number:      1.00000000

  Lowest unoccupied state (CBM) at    -2.49247214 eV
  | Occupation number:      1.00000000

  Overall HOMO-LUMO gap:      0.00000000 eV.

  Total energy components:
  | Sum of eigenvalues            :        -126.08934718 Ha       -3431.06570744 eV
  | XC energy correction          :         -28.20711956 Ha        -767.55477609 eV
  | XC potential correction       :          36.05005904 Ha         980.97201766 eV
  | Free-atom electrostatic energy:        -107.22342680 Ha       -2917.69789393 eV
  | Hartree energy correction     :          -4.66547347 Ha        -126.95399247 eV
  | van der Waals energy corr.    :           0.00000000 Ha           0.00000000 eV
  | Entropy correction            :          -0.00010367 Ha          -0.00282095 eV
  | ---------------------------
  | Total energy                  :        -230.13530797 Ha       -6262.30035228 eV
  | Total energy, T -> 0          :        -230.13541164 Ha       -6262.30317322 eV  <-- do not rely on this value for anything but (periodic) metals
  | Electronic free energy        :        -230.13551531 Ha       -6262.30599417 eV

  Derived energy quantities:
  | Kinetic energy                :         229.53514891 Ha        6245.96919313 eV
  | Electrostatic energy          :        -431.46333731 Ha      -11740.71476931 eV
  | Energy correction for multipole
  | error in Hartree potential    :           0.00005679 Ha           0.00154532 eV
  | Sum of eigenvalues per atom                           :        -343.10657074 eV
  | Total energy (T->0) per atom                          :        -626.23031732 eV  <-- do not rely on this value for anything but (periodic) metals
  | Electronic free energy per atom                       :        -626.23059942 eV

  Self-consistency convergence accuracy:
  | Change of charge density      : 0.9930E-01
  | Change of sum of eigenvalues  : 0.2557E+02 eV
  | Change of total energy        : 0.1397E+00 eV

  End self-consistency iteration #     4       :  max(cpu_time)    wall_clock(cpu1)
  | Time for this iteration                    :        0.720 s           0.720 s
  | Charge density update                      :        0.224 s           0.224 s
  | Density mixing                             :        0.005 s           0.005 s
  | Hartree multipole update                   :        0.004 s           0.004 s
  | Hartree multipole summation                :        0.145 s           0.145 s
  | Integration                                :        0.323 s           0.322 s
  | Solution of K.-S. eqns.                    :        0.018 s           0.019 s
  | Total energy evaluation                    :        0.000 s           0.001 s
------------------------------------------------------------

------------------------------------------------------------
          Begin self-consistency iteration #    5

  Date     :  20150727, Time     :  130442.741
------------------------------------------------------------
  Evaluating new KS density.
  Integration grid: deviation in total charge (<rho> - N_e) =   7.105427E-15
  Pulay mixing of updated and previous charge densities.

  Evaluating partitioned Hartree potential by multipole expansion.
  | Analytical far-field extrapolation by fixed multipoles:
  | Hartree multipole sum: apparent total charge =  -0.230337E-05
  Summing up the Hartree potential.
  Time summed over all CPUs for potential: real work        1.143 s, elapsed        1.152 s
  | RMS charge density error from multipole expansion :   0.141115E-01

  Integrating Hamiltonian matrix: batch-based integration.
  Time summed over all CPUs for integration: real work        2.502 s, elapsed        2.572 s

  Updating Kohn-Sham eigenvalues, eigenvectors, occupation numbers, and Fermi level.
  Solving generalized eigenproblem
  Updating Kohn-Sham eigenvalues and eigenfunctions.
  Solving real generalised eigenvalue problem by standard LAPACK (fast)
  Determining occupation numbers for Kohn-Sham eigenstates.
  | Chemical potential (Fermi level) in eV                 : -.24756938E+01
  | Error in electron count due to remaining E_F inaccuracy: -.42632564E-13
  | Maximum occupation number of highest empty state:  0.00E+00

  Highest occupied state (VBM) at     -6.94460987 eV
  | Occupation number:      2.00000000

  Lowest unoccupied state (CBM) at    -2.47569375 eV
  | Occupation number:      1.00000000

  Overall HOMO-LUMO gap:      4.46891612 eV.

  Total energy components:
  | Sum of eigenvalues            :        -126.17100830 Ha       -3433.28781971 eV
  | XC energy correction          :         -28.19637860 Ha        -767.26249968 eV
  | XC potential correction       :          36.03593296 Ha         980.58762762 eV
  | Free-atom electrostatic energy:        -107.22342680 Ha       -2917.69789393 eV
  | Hartree energy correction     :          -4.58014011 Ha        -124.63195368 eV
  | van der Waals energy corr.    :           0.00000000 Ha           0.00000000 eV
  | Entropy correction            :          -0.00010367 Ha          -0.00282095 eV
  | ---------------------------
  | Total energy                  :        -230.13502085 Ha       -6262.29253937 eV
  | Total energy, T -> 0          :        -230.13512452 Ha       -6262.29536032 eV  <-- do not rely on this value for anything but (periodic) metals
  | Electronic free energy        :        -230.13522819 Ha       -6262.29818127 eV

  Derived energy quantities:
  | Kinetic energy                :         229.54911393 Ha        6246.34920082 eV
  | Electrostatic energy          :        -431.48775618 Ha      -11741.37924052 eV
  | Energy correction for multipole
  | error in Hartree potential    :           0.00017958 Ha           0.00488652 eV
  | Sum of eigenvalues per atom                           :        -343.32878197 eV
  | Total energy (T->0) per atom                          :        -626.22953603 eV  <-- do not rely on this value for anything but (periodic) metals
  | Electronic free energy per atom                       :        -626.22981813 eV

  Self-consistency convergence accuracy:
  | Change of charge density      : 0.1819E-01
  | Change of sum of eigenvalues  : -.2222E+01 eV
  | Change of total energy        : 0.7813E-02 eV

  End self-consistency iteration #     5       :  max(cpu_time)    wall_clock(cpu1)
  | Time for this iteration                    :        0.720 s           0.719 s
  | Charge density update                      :        0.223 s           0.222 s
  | Density mixing                             :        0.006 s           0.006 s
  | Hartree multipole update                   :        0.004 s           0.004 s
  | Hartree multipole summation                :        0.144 s           0.145 s
  | Integration                                :        0.322 s           0.322 s
  | Solution of K.-S. eqns.                    :        0.018 s           0.019 s
  | Total energy evaluation                    :        0.001 s           0.001 s
------------------------------------------------------------

------------------------------------------------------------
          Begin self-consistency iteration #    6

  Date     :  20150727, Time     :  130443.461
------------------------------------------------------------
  Evaluating new KS density.
  Integration grid: deviation in total charge (<rho> - N_e) =  -4.263256E-14
  Pulay mixing of updated and previous charge densities.

  Evaluating partitioned Hartree potential by multipole expansion.
  | Analytical far-field extrapolation by fixed multipoles:
  | Hartree multipole sum: apparent total charge =  -0.229173E-05
  Summing up the Hartree potential.
  Time summed over all CPUs for potential: real work        1.143 s, elapsed        1.152 s
  | RMS charge density error from multipole expansion :   0.141887E-01

  Integrating Hamiltonian matrix: batch-based integration.
  Time summed over all CPUs for integration: real work        2.499 s, elapsed        2.578 s

  Updating Kohn-Sham eigenvalues, eigenvectors, occupation numbers, and Fermi level.
  Solving generalized eigenproblem
  Updating Kohn-Sham eigenvalues and eigenfunctions.
  Solving real generalised eigenvalue problem by standard LAPACK (fast)
  Determining occupation numbers for Kohn-Sham eigenstates.
  | Chemical potential (Fermi level) in eV                 : -.24746741E+01
  | Error in electron count due to remaining E_F inaccuracy: -.51159077E-12
  | Maximum occupation number of highest empty state:  0.00E+00

  Highest occupied state (VBM) at     -6.95498887 eV
  | Occupation number:      2.00000000

  Lowest unoccupied state (CBM) at    -2.47467413 eV
  | Occupation number:      1.00000000

  Overall HOMO-LUMO gap:      4.48031475 eV.

  Total energy components:
  | Sum of eigenvalues            :        -126.18181743 Ha       -3433.58195090 eV
  | XC energy correction          :         -28.19541484 Ha        -767.23627441 eV
  | XC potential correction       :          36.03458274 Ha         980.55088635 eV
  | Free-atom electrostatic energy:        -107.22342680 Ha       -2917.69789393 eV
  | Hartree energy correction     :          -4.56893857 Ha        -124.32714414 eV
  | van der Waals energy corr.    :           0.00000000 Ha           0.00000000 eV
  | Entropy correction            :          -0.00010367 Ha          -0.00282095 eV
  | ---------------------------
  | Total energy                  :        -230.13501489 Ha       -6262.29237703 eV
  | Total energy, T -> 0          :        -230.13511856 Ha       -6262.29519798 eV  <-- do not rely on this value for anything but (periodic) metals
  | Electronic free energy        :        -230.13522222 Ha       -6262.29801892 eV

  Derived energy quantities:
  | Kinetic energy                :         229.54149733 Ha        6246.14194247 eV
  | Electrostatic energy          :        -431.48109737 Ha      -11741.19804509 eV
  | Energy correction for multipole
  | error in Hartree potential    :           0.00019777 Ha           0.00538147 eV
  | Sum of eigenvalues per atom                           :        -343.35819509 eV
  | Total energy (T->0) per atom                          :        -626.22951980 eV  <-- do not rely on this value for anything but (periodic) metals
  | Electronic free energy per atom                       :        -626.22980189 eV

  Self-consistency convergence accuracy:
  | Change of charge density      : 0.7591E-02
  | Change of sum of eigenvalues  : -.2941E+00 eV
  | Change of total energy        : 0.1623E-03 eV

  End self-consistency iteration #     6       :  max(cpu_time)    wall_clock(cpu1)
  | Time for this iteration                    :        0.722 s           0.721 s
  | Charge density update                      :        0.223 s           0.222 s
  | Density mixing                             :        0.007 s           0.008 s
  | Hartree multipole update                   :        0.004 s           0.003 s
  | Hartree multipole summation                :        0.145 s           0.145 s
  | Integration                                :        0.323 s           0.323 s
  | Solution of K.-S. eqns.                    :        0.018 s           0.019 s
  | Total energy evaluation                    :        0.001 s           0.001 s
------------------------------------------------------------

------------------------------------------------------------
          Begin self-consistency iteration #    7

  Date     :  20150727, Time     :  130444.183
------------------------------------------------------------
  Evaluating new KS density.
  Integration grid: deviation in total charge (<rho> - N_e) =  -5.044853E-13
  Pulay mixing of updated and previous charge densities.

  Evaluating partitioned Hartree potential by multipole expansion.
  | Analytical far-field extrapolation by fixed multipoles:
  | Hartree multipole sum: apparent total charge =  -0.221812E-05
  Summing up the Hartree potential.
  Time summed over all CPUs for potential: real work        1.143 s, elapsed        1.152 s
  | RMS charge density error from multipole expansion :   0.142814E-01

  Integrating Hamiltonian matrix: batch-based integration.
  Time summed over all CPUs for integration: real work        2.495 s, elapsed        2.575 s

  Updating Kohn-Sham eigenvalues, eigenvectors, occupation numbers, and Fermi level.
  Solving generalized eigenproblem
  Updating Kohn-Sham eigenvalues and eigenfunctions.
  Solving real generalised eigenvalue problem by standard LAPACK (fast)
  Determining occupation numbers for Kohn-Sham eigenstates.
  | Chemical potential (Fermi level) in eV                 : -.24672756E+01
  | Error in electron count due to remaining E_F inaccuracy: 0.14068746E-11
  | Maximum occupation number of highest empty state:  0.00E+00

  Highest occupied state (VBM) at     -2.46727561 eV
  | Occupation number:      1.00000000

  Lowest unoccupied state (CBM) at    -1.01691044 eV
  | Occupation number:      0.00000000

  Overall HOMO-LUMO gap:      1.45036516 eV.

  Total energy components:
  | Sum of eigenvalues            :        -126.23145774 Ha       -3434.93273264 eV
  | XC energy correction          :         -28.18982919 Ha        -767.08428116 eV
  | XC potential correction       :          36.02699033 Ha         980.34428620 eV
  | Free-atom electrostatic energy:        -107.22342680 Ha       -2917.69789393 eV
  | Hartree energy correction     :          -4.51725681 Ha        -122.92081205 eV
  | van der Waals energy corr.    :           0.00000000 Ha           0.00000000 eV
  | Entropy correction            :          -0.00010367 Ha          -0.00282095 eV
  | ---------------------------
  | Total energy                  :        -230.13498022 Ha       -6262.29143357 eV
  | Total energy, T -> 0          :        -230.13508388 Ha       -6262.29425452 eV  <-- do not rely on this value for anything but (periodic) metals
  | Electronic free energy        :        -230.13518755 Ha       -6262.29707547 eV

  Derived energy quantities:
  | Kinetic energy                :         229.57373313 Ha        6247.01912330 eV
  | Electrostatic energy          :        -431.51888415 Ha      -11742.22627572 eV
  | Energy correction for multipole
  | error in Hartree potential    :           0.00037929 Ha           0.01032095 eV
  | Sum of eigenvalues per atom                           :        -343.49327326 eV
  | Total energy (T->0) per atom                          :        -626.22942545 eV  <-- do not rely on this value for anything but (periodic) metals
  | Electronic free energy per atom                       :        -626.22970755 eV

  Self-consistency convergence accuracy:
  | Change of charge density      : 0.6411E-02
  | Change of sum of eigenvalues  : -.1351E+01 eV
  | Change of total energy        : 0.9435E-03 eV

  End self-consistency iteration #     7       :  max(cpu_time)    wall_clock(cpu1)
  | Time for this iteration                    :        0.722 s           0.722 s
  | Charge density update                      :        0.223 s           0.223 s
  | Density mixing                             :        0.008 s           0.008 s
  | Hartree multipole update                   :        0.004 s           0.003 s
  | Hartree multipole summation                :        0.145 s           0.145 s
  | Integration                                :        0.322 s           0.323 s
  | Solution of K.-S. eqns.                    :        0.018 s           0.018 s
  | Total energy evaluation                    :        0.000 s           0.000 s
------------------------------------------------------------

------------------------------------------------------------
          Begin self-consistency iteration #    8

  Date     :  20150727, Time     :  130444.905
------------------------------------------------------------
  Evaluating new KS density.
  Integration grid: deviation in total charge (<rho> - N_e) =   1.413980E-12
  Pulay mixing of updated and previous charge densities.

  Evaluating partitioned Hartree potential by multipole expansion.
  | Analytical far-field extrapolation by fixed multipoles:
  | Hartree multipole sum: apparent total charge =  -0.219619E-05
  Summing up the Hartree potential.
  Time summed over all CPUs for potential: real work        1.143 s, elapsed        1.152 s
  | RMS charge density error from multipole expansion :   0.142824E-01

  Integrating Hamiltonian matrix: batch-based integration.
  Time summed over all CPUs for integration: real work        2.498 s, elapsed        2.591 s

  Updating Kohn-Sham eigenvalues, eigenvectors, occupation numbers, and Fermi level.
  Solving generalized eigenproblem
  Updating Kohn-Sham eigenvalues and eigenfunctions.
  Solving real generalised eigenvalue problem by standard LAPACK (fast)
  Determining occupation numbers for Kohn-Sham eigenstates.
  | Chemical potential (Fermi level) in eV                 : -.24715153E+01
  | Error in electron count due to remaining E_F inaccuracy: 0.16278534E-10
  | Maximum occupation number of highest empty state:  0.00E+00

  Highest occupied state (VBM) at     -2.47151533 eV
  | Occupation number:      1.00000000

  Lowest unoccupied state (CBM) at    -1.01800622 eV
  | Occupation number:      0.00000000

  Overall HOMO-LUMO gap:      1.45350911 eV.

  Total energy components:
  | Sum of eigenvalues            :        -126.24144417 Ha       -3435.20447702 eV
  | XC energy correction          :         -28.18859386 Ha        -767.05066605 eV
  | XC potential correction       :          36.02534622 Ha         980.29954787 eV
  | Free-atom electrostatic energy:        -107.22342680 Ha       -2917.69789393 eV
  | Hartree energy correction     :          -4.50686049 Ha        -122.63791376 eV
  | van der Waals energy corr.    :           0.00000000 Ha           0.00000000 eV
  | Entropy correction            :          -0.00010367 Ha          -0.00282095 eV
  | ---------------------------
  | Total energy                  :        -230.13497909 Ha       -6262.29140289 eV
  | Total energy, T -> 0          :        -230.13508276 Ha       -6262.29422384 eV  <-- do not rely on this value for anything but (periodic) metals
  | Electronic free energy        :        -230.13518642 Ha       -6262.29704479 eV

  Derived energy quantities:
  | Kinetic energy                :         229.57512541 Ha        6247.05700925 eV
  | Electrostatic energy          :        -431.52151064 Ha      -11742.29774609 eV
  | Energy correction for multipole
  | error in Hartree potential    :           0.00039530 Ha           0.01075655 eV
  | Sum of eigenvalues per atom                           :        -343.52044770 eV
  | Total energy (T->0) per atom                          :        -626.22942238 eV  <-- do not rely on this value for anything but (periodic) metals
  | Electronic free energy per atom                       :        -626.22970448 eV

  Self-consistency convergence accuracy:
  | Change of charge density      : 0.1170E-02
  | Change of sum of eigenvalues  : -.2717E+00 eV
  | Change of total energy        : 0.3068E-04 eV

  End self-consistency iteration #     8       :  max(cpu_time)    wall_clock(cpu1)
  | Time for this iteration                    :        0.724 s           0.724 s
  | Charge density update                      :        0.222 s           0.223 s
  | Density mixing                             :        0.009 s           0.008 s
  | Hartree multipole update                   :        0.004 s           0.004 s
  | Hartree multipole summation                :        0.145 s           0.145 s
  | Integration                                :        0.324 s           0.324 s
  | Solution of K.-S. eqns.                    :        0.019 s           0.018 s
  | Total energy evaluation                    :        0.001 s           0.001 s
------------------------------------------------------------

------------------------------------------------------------
          Begin self-consistency iteration #    9

  Date     :  20150727, Time     :  130445.630
------------------------------------------------------------
  Evaluating new KS density.
  Integration grid: deviation in total charge (<rho> - N_e) =   1.627853E-11
  Pulay mixing of updated and previous charge densities.

  Evaluating partitioned Hartree potential by multipole expansion.
  | Analytical far-field extrapolation by fixed multipoles:
  | Hartree multipole sum: apparent total charge =  -0.218981E-05
  Summing up the Hartree potential.
  Time summed over all CPUs for potential: real work        1.143 s, elapsed        1.153 s
  | RMS charge density error from multipole expansion :   0.142736E-01

  Integrating Hamiltonian matrix: batch-based integration.
  Time summed over all CPUs for integration: real work        2.499 s, elapsed        2.578 s

  Updating Kohn-Sham eigenvalues, eigenvectors, occupation numbers, and Fermi level.
  Solving generalized eigenproblem
  Updating Kohn-Sham eigenvalues and eigenfunctions.
  Solving real generalised eigenvalue problem by standard LAPACK (fast)
  Determining occupation numbers for Kohn-Sham eigenstates.
  | Chemical potential (Fermi level) in eV                 : -.24736879E+01
  | Error in electron count due to remaining E_F inaccuracy: -.59792171E-09
  | Maximum occupation number of highest empty state:  0.00E+00

  Highest occupied state (VBM) at     -7.03454848 eV
  | Occupation number:      2.00000000

  Lowest unoccupied state (CBM) at    -2.47368789 eV
  | Occupation number:      1.00000000

  Overall HOMO-LUMO gap:      4.56086059 eV.

  Total energy components:
  | Sum of eigenvalues            :        -126.24140426 Ha       -3435.20339102 eV
  | XC energy correction          :         -28.18854102 Ha        -767.04922823 eV
  | XC potential correction       :          36.02528215 Ha         980.29780425 eV
  | Free-atom electrostatic energy:        -107.22342680 Ha       -2917.69789393 eV
  | Hartree energy correction     :          -4.50688875 Ha        -122.63868279 eV
  | van der Waals energy corr.    :           0.00000000 Ha           0.00000000 eV
  | Entropy correction            :          -0.00010367 Ha          -0.00282095 eV
  | ---------------------------
  | Total energy                  :        -230.13497868 Ha       -6262.29139172 eV
  | Total energy, T -> 0          :        -230.13508235 Ha       -6262.29421267 eV  <-- do not rely on this value for anything but (periodic) metals
  | Electronic free energy        :        -230.13518601 Ha       -6262.29703362 eV

  Derived energy quantities:
  | Kinetic energy                :         229.57727817 Ha        6247.11558872 eV
  | Electrostatic energy          :        -431.52371583 Ha      -11742.35775221 eV
  | Energy correction for multipole
  | error in Hartree potential    :           0.00039690 Ha           0.01080014 eV
  | Sum of eigenvalues per atom                           :        -343.52033910 eV
  | Total energy (T->0) per atom                          :        -626.22942127 eV  <-- do not rely on this value for anything but (periodic) metals
  | Electronic free energy per atom                       :        -626.22970336 eV

  Self-consistency convergence accuracy:
  | Change of charge density      : 0.3894E-03
  | Change of sum of eigenvalues  : 0.1086E-02 eV
  | Change of total energy        : 0.1117E-04 eV

  End self-consistency iteration #     9       :  max(cpu_time)    wall_clock(cpu1)
  | Time for this iteration                    :        0.724 s           0.724 s
  | Charge density update                      :        0.223 s           0.222 s
  | Density mixing                             :        0.010 s           0.010 s
  | Hartree multipole update                   :        0.004 s           0.004 s
  | Hartree multipole summation                :        0.145 s           0.145 s
  | Integration                                :        0.323 s           0.323 s
  | Solution of K.-S. eqns.                    :        0.018 s           0.018 s
  | Total energy evaluation                    :        0.000 s           0.000 s
------------------------------------------------------------

------------------------------------------------------------
          Begin self-consistency iteration #   10

  Date     :  20150727, Time     :  130446.354
------------------------------------------------------------
  Evaluating new KS density.
  Integration grid: deviation in total charge (<rho> - N_e) =  -5.979111E-10
  Pulay mixing of updated and previous charge densities.

  Evaluating partitioned Hartree potential by multipole expansion.
  | Analytical far-field extrapolation by fixed multipoles:
  | Hartree multipole sum: apparent total charge =  -0.218694E-05
  Summing up the Hartree potential.
  Time summed over all CPUs for potential: real work        1.143 s, elapsed        1.152 s
  | RMS charge density error from multipole expansion :   0.142731E-01

  Integrating Hamiltonian matrix: batch-based integration.
  Time summed over all CPUs for integration: real work        2.494 s, elapsed        2.563 s

  Updating Kohn-Sham eigenvalues, eigenvectors, occupation numbers, and Fermi level.
  Solving generalized eigenproblem
  Updating Kohn-Sham eigenvalues and eigenfunctions.
  Solving real generalised eigenvalue problem by standard LAPACK (fast)
  Determining occupation numbers for Kohn-Sham eigenstates.
  | Chemical potential (Fermi level) in eV                 : -.24743031E+01
  | Error in electron count due to remaining E_F inaccuracy: 0.00000000E+00
  | Maximum occupation number of highest empty state:  0.00E+00

  Highest occupied state (VBM) at     -2.47430306 eV
  | Occupation number:      1.00000000

  Lowest unoccupied state (CBM) at    -2.47430306 eV
  | Occupation number:      1.00000000

  Overall HOMO-LUMO gap:      0.00000000 eV.

  Total energy components:
  | Sum of eigenvalues            :        -126.24028001 Ha       -3435.17279885 eV
  | XC energy correction          :         -28.18865639 Ha        -767.05236765 eV
  | XC potential correction       :          36.02543714 Ha         980.30202192 eV
  | Free-atom electrostatic energy:        -107.22342680 Ha       -2917.69789393 eV
  | Hartree energy correction     :          -4.50805263 Ha        -122.67035337 eV
  | van der Waals energy corr.    :           0.00000000 Ha           0.00000000 eV
  | Entropy correction            :          -0.00010367 Ha          -0.00282095 eV
  | ---------------------------
  | Total energy                  :        -230.13497868 Ha       -6262.29139188 eV
  | Total energy, T -> 0          :        -230.13508235 Ha       -6262.29421283 eV  <-- do not rely on this value for anything but (periodic) metals
  | Electronic free energy        :        -230.13518602 Ha       -6262.29703378 eV

  Derived energy quantities:
  | Kinetic energy                :         229.57749254 Ha        6247.12142206 eV
[...]
  | Atom     7: H
  |   Hirshfeld charge        :      0.12215758
  |   Free atom volume        :     10.44207651
  |   Hirshfeld volume        :      8.41618260
  |   Hirshfeld dipole vector :     -0.05597705      -0.02056717       0.08657639
  |   Hirshfeld dipole moment :      0.10512806
  |   Hirshfeld second moments:      0.07534005       0.01024497       0.01009263
  |                                  0.01024497       0.06160181       0.00199758
  |                                  0.01009263       0.00199758       0.07944950
  ----------------------------------------------------------------------
  | Atom     8: O
  |   Hirshfeld charge        :     -0.30331537
  |   Free atom volume        :     23.95238533
  |   Hirshfeld volume        :     22.84696031
  |   Hirshfeld dipole vector :     -0.00176870       0.06923816      -0.00253070
  |   Hirshfeld dipole moment :      0.06930697
  |   Hirshfeld second moments:     -0.00806871      -0.01866118      -0.06282872
  |                                 -0.01866118      -0.02127198      -0.00395428
  |                                 -0.06282872      -0.00395428       0.01829143
  ----------------------------------------------------------------------
  | Atom     9: H
  |   Hirshfeld charge        :      0.13734869
  |   Free atom volume        :     10.44207651
  |   Hirshfeld volume        :      6.71477917
  |   Hirshfeld dipole vector :     -0.06308539       0.08857480       0.06679866
  |   Hirshfeld dipole moment :      0.12762179
  |   Hirshfeld second moments:      0.10358969       0.00137197      -0.01856053
  |                                  0.00137197       0.10081754      -0.01041491
  |                                 -0.01856053      -0.01041491       0.11493564
  ----------------------------------------------------------------------
  | Atom    10: H
  |   Hirshfeld charge        :      0.13231770
  |   Free atom volume        :     10.44207651
  |   Hirshfeld volume        :      8.17854744
  |   Hirshfeld dipole vector :      0.04877073       0.06690278      -0.07120585
  |   Hirshfeld dipole moment :      0.10920090
  |   Hirshfeld second moments:      0.07731872      -0.01415155      -0.00519244
  |                                 -0.01415155       0.08681614      -0.00722049
  |                                 -0.00519244      -0.00722049       0.06989807
  ----------------------------------------------------------------------


  Total energy components:
  | Sum of eigenvalues            :        -126.24035483 Ha       -3435.17483470 eV
  | XC energy correction          :         -28.18862837 Ha        -767.05160503 eV
  | XC potential correction       :          36.02540234 Ha         980.30107495 eV
  | Free-atom electrostatic energy:        -107.22342680 Ha       -2917.69789393 eV
  | Hartree energy correction     :          -4.50797107 Ha        -122.66813399 eV
  | van der Waals energy corr.    :          -0.00113319 Ha          -0.03083560 eV
  | Entropy correction            :          -0.00010367 Ha          -0.00282095 eV
  | ---------------------------
  | Total energy                  :        -230.13611190 Ha       -6262.32222828 eV
  | Total energy, T -> 0          :        -230.13621557 Ha       -6262.32504923 eV  <-- do not rely on this value for anything but (periodic) metals
  | Electronic free energy        :        -230.13631924 Ha       -6262.32787018 eV

  Derived energy quantities:
  | Kinetic energy                :         229.57737753 Ha        6247.11829235 eV
  | Electrostatic energy          :        -431.52372787 Ha      -11742.35808001 eV
  | Energy correction for multipole
  | error in Hartree potential    :           0.00039613 Ha           0.01077922 eV
  | Sum of eigenvalues per atom                           :        -343.51748347 eV
  | Total energy (T->0) per atom                          :        -626.23250492 eV  <-- do not rely on this value for anything but (periodic) metals
  | Electronic free energy per atom                       :        -626.23278702 eV

  atomic forces [eV/Ang]:
  -----------------------
  atom #    1
   Hellmann-Feynman + Multipole  : -.341739E+01 -.675134E+01 -.788562E+01
   Pulay + GGA                   : 0.333030E+01 0.754137E+01 0.727828E+01
   Van der Waals               : 0.200491E-02 0.442251E-02 0.350552E-02
   ----------------------------------------------------------------
   Total forces(   1)            : -.850881E-01 0.794447E+00 -.603834E+00
  atom #    2
   Hellmann-Feynman + Multipole  : 0.273454E+00 -.679879E+00 0.243165E+00
   Pulay + GGA                   : -.999575E-01 0.147807E+00 -.945665E-01
   Van der Waals               : 0.174943E-02 0.369997E-02 0.446271E-02
   ----------------------------------------------------------------
   Total forces(   2)            : 0.175246E+00 -.528372E+00 0.153061E+00
  atom #    3
   Hellmann-Feynman + Multipole  : -.176066E+00 -.128106E+00 0.902963E-01
   Pulay + GGA                   : 0.161746E+00 0.109685E-01 0.300829E-02
   Van der Waals               : -.975520E-03 -.830853E-03 -.515148E-03
   ----------------------------------------------------------------
   Total forces(   3)            : -.152963E-01 -.117969E+00 0.927894E-01
  atom #    4
   Hellmann-Feynman + Multipole  : -.158325E-01 -.445483E-01 0.219947E+00
   Pulay + GGA                   : -.472165E-01 -.466564E-01 0.168589E+00
   Van der Waals               : 0.170651E-02 0.461784E-02 0.211548E-02
   ----------------------------------------------------------------
   Total forces(   4)            : -.613425E-01 -.865868E-01 0.390651E+00
  atom #    5
   Hellmann-Feynman + Multipole  : -.232778E+01 -.319552E+01 -.169659E+02
   Pulay + GGA                   : 0.308598E+01 0.351061E+01 0.153285E+02
   Van der Waals               : -.834266E-02 -.645868E-03 -.408707E-03
   ----------------------------------------------------------------
   Total forces(   5)            : 0.749860E+00 0.314454E+00 -.163773E+01
  atom #    6
   Hellmann-Feynman + Multipole  : -.480102E+00 -.283784E+00 0.335870E+00
   Pulay + GGA                   : 0.107594E+00 0.688705E-01 0.580080E-01
   Van der Waals               : -.239311E-02 -.958783E-03 -.791174E-03
   ----------------------------------------------------------------
   Total forces(   6)            : -.374901E+00 -.215872E+00 0.393087E+00
  atom #    7
   Hellmann-Feynman + Multipole  : -.367780E+00 -.527808E-01 0.112705E+01
   Pulay + GGA                   : -.750380E-01 -.538535E-01 0.948412E-01
   Van der Waals               : -.187146E-02 -.326167E-02 -.322148E-02
   ----------------------------------------------------------------
   Total forces(   7)            : -.444689E+00 -.109896E+00 0.121867E+01
  atom #    8
   Hellmann-Feynman + Multipole  : 0.108278E+01 -.160822E+02 0.192089E+01
   Pulay + GGA                   : 0.237438E+00 0.161945E+02 -.370453E+01
   Van der Waals               : 0.446524E-02 -.343872E-02 -.314037E-02
   ----------------------------------------------------------------
   Total forces(   8)            : 0.132468E+01 0.108927E+00 -.178678E+01
  atom #    9
   Hellmann-Feynman + Multipole  : -.244258E+00 0.558213E+00 0.198673E+00
   Pulay + GGA                   : -.810489E-01 0.969841E-01 0.876828E-01
   Van der Waals               : 0.124533E-02 -.827585E-03 -.535660E-03
   ----------------------------------------------------------------
   Total forces(   9)            : -.324061E+00 0.654370E+00 0.285820E+00
  atom #   10
   Hellmann-Feynman + Multipole  : -.992983E+00 -.879524E+00 0.159401E+01
   Pulay + GGA                   : 0.492790E-01 0.743504E-01 -.109896E+00
   Van der Waals               : 0.241135E-02 -.277684E-02 -.147117E-02
   ----------------------------------------------------------------
   Total forces(  10)            : -.941293E+00 -.807950E+00 0.148264E+01
  Timings for vdw_correction_hirshfeld (Tkatchenko-Scheffler 2009):
  | CPU time:        1.891 s, Wall clock time:        1.893 s.
  Removing unitary transformations (pure translations, rotations) from forces on atoms.
  Atomic forces before filtering:
  | Net force on center of mass :  0.311902E-02 0.555158E-02 -.116198E-01 eV/A
  | Net torque on center of mass:  0.884379E-02 -.487819E-02 -.249906E-02 eV
  Atomic forces after filtering:
  | Net force on center of mass :  0.178406E-15 0.000000E+00 -.178406E-15 eV/A
  | Net torque on center of mass:  -.188817E-15 -.377634E-15 -.944085E-15 eV
 
  Energy and forces in a compact form:
  | Total energy uncorrected      :         -0.626232222828270E+04 eV
  | Total energy corrected        :         -0.626232504923062E+04 eV  <-- do not rely on this value for anything but (periodic) metals
  | Electronic free energy        :         -0.626232787017854E+04 eV
  Total atomic forces (unitary forces cleaned) [eV/Ang]:
  |   1         -0.854432240903851E-01          0.793500718585056E+00         -0.602134049639719E+00
  |   2          0.174684683221724E+00         -0.529476975292803E+00          0.154662116525034E+00
  |   3         -0.156773070343100E-01         -0.118770184008203E+00          0.942197029157138E-01
  |   4         -0.614798972282725E-01         -0.873587081892153E-01          0.392444505551564E+00
  |   5          0.749544682772334E+00          0.314241595363771E+00         -0.163710715515728E+01
  |   6         -0.375215809863882E+00         -0.215905909970860E+00          0.393430587374355E+00
  |   7         -0.444815770894753E+00         -0.110023799375361E+00          0.121947565477917E+01
  |   8          0.132444886716682E+01          0.108431284026091E+00         -0.178557847665644E+01
  |   9         -0.324290084531835E+00          0.653919611098949E+00          0.286957849886780E+00
  |  10         -0.941756139517443E+00         -0.808557632237423E+00          0.148362926442082E+01
 
  ------------------------------------ 
  Start decomposition of the XC Energy 
  ------------------------------------ 
  Hartree-Fock part   :          0.000000000 Ha              0.000000000 eV
  ------------------------------------ 
  X Energy            :        -27.197671405 Ha           -740.086294097 eV
  C Energy GGA        :         -0.990956962 Ha            -26.965310929 eV
  Total XC Energy     :        -28.188628367 Ha           -767.051605026 eV
  LDA X and C from self-consistent density 
  X Energy LDA        :        -24.484575260 Ha           -666.259191727 eV
  C Energy LDA        :         -2.014277137 Ha            -54.811269659 eV
  ------------------------------------ 
  End decomposition of the XC Energy 
  ------------------------------------ 
  Performing Hirshfeld analysis of fragment charges and moments.
  ----------------------------------------------------------------------
  | Atom     1: O
  |   Hirshfeld charge        :     -0.12008462
  |   Free atom volume        :     23.95238533
  |   Hirshfeld volume        :     24.20084205
  |   Hirshfeld dipole vector :      0.01192528       0.02516276       0.02505844
  |   Hirshfeld dipole moment :      0.03746068
  |   Hirshfeld second moments:      0.03957527       0.00130762      -0.01034790
  |                                  0.00130762      -0.01753974      -0.02493710
  |                                 -0.01034790      -0.02493710       0.01779706
  ----------------------------------------------------------------------
  | Atom     2: H
  |   Hirshfeld charge        :      0.02233291
  |   Free atom volume        :     10.44207651
  |   Hirshfeld volume        :     15.36387877
  |   Hirshfeld dipole vector :      0.02649022      -0.02697435       0.02858736
  |   Hirshfeld dipole moment :      0.04739814
  |   Hirshfeld second moments:     -0.07318993       0.00690875      -0.00031438
  |                                  0.00690875      -0.08681290       0.01660507
  |                                 -0.00031438       0.01660507      -0.06533050
  ----------------------------------------------------------------------
  | Atom     3: H
  |   Hirshfeld charge        :      0.09843458
  |   Free atom volume        :     10.44207651
  |   Hirshfeld volume        :     12.89524348
  |   Hirshfeld dipole vector :      0.03195408       0.02070782       0.01235079
  |   Hirshfeld dipole moment :      0.04003022
  |   Hirshfeld second moments:     -0.00686572       0.00282305      -0.00396487
  |                                  0.00282305      -0.02235118       0.01295757
  |                                 -0.00396487       0.01295757      -0.00751883
  ----------------------------------------------------------------------
  | Atom     4: H
  |   Hirshfeld charge        :      0.08197943
  |   Free atom volume        :     10.44207651
  |   Hirshfeld volume        :     13.50043550
  |   Hirshfeld dipole vector :      0.00087423       0.01213110       0.02310820
  |   Hirshfeld dipole moment :      0.02611354
  |   Hirshfeld second moments:     -0.02442500       0.01338464       0.00243978
  |                                  0.01338464      -0.02346654       0.00557485
  |                                  0.00243978       0.00557485      -0.03056364
  ----------------------------------------------------------------------
  | Atom     5: O
  |   Hirshfeld charge        :     -0.31396461
  |   Free atom volume        :     23.95238533
  |   Hirshfeld volume        :     22.91170818
  |   Hirshfeld dipole vector :      0.01256894       0.02283873       0.07333493
  |   Hirshfeld dipole moment :      0.07783058
  |   Hirshfeld second moments:      0.03297427       0.05549638      -0.02158206
  |                                  0.05549638      -0.02624064      -0.00765102
  |                                 -0.02158206      -0.00765102      -0.01884075
  ----------------------------------------------------------------------
  | Atom     6: H
  |   Hirshfeld charge        :      0.14272693
  |   Free atom volume        :     10.44207651
  |   Hirshfeld volume        :      7.04138525
  |   Hirshfeld dipole vector :      0.09852636       0.06980538       0.03930342
  |   Hirshfeld dipole moment :      0.12698422
  |   Hirshfeld second moments:      0.10977366       0.01299514      -0.01440675
  |                                  0.01299514       0.08968598      -0.00928207
  |                                 -0.01440675      -0.00928207       0.10452488
  ----------------------------------------------------------------------
  | Atom     7: H
  |   Hirshfeld charge        :      0.12215758
  |   Free atom volume        :     10.44207651
  |   Hirshfeld volume        :      8.41618260
  |   Hirshfeld dipole vector :     -0.05597705      -0.02056717       0.08657639
  |   Hirshfeld dipole moment :      0.10512806
  |   Hirshfeld second moments:      0.07534005       0.01024497       0.01009263
  |                                  0.01024497       0.06160181       0.00199758
  |                                  0.01009263       0.00199758       0.07944950
  ----------------------------------------------------------------------
  | Atom     8: O
  |   Hirshfeld charge        :     -0.30331537
  |   Free atom volume        :     23.95238533
  |   Hirshfeld volume        :     22.84696031
  |   Hirshfeld dipole vector :     -0.00176870       0.06923816      -0.00253070
  |   Hirshfeld dipole moment :      0.06930697
  |   Hirshfeld second moments:     -0.00806871      -0.01866118      -0.06282872
  |                                 -0.01866118      -0.02127198      -0.00395428
  |                                 -0.06282872      -0.00395428       0.01829143
  ----------------------------------------------------------------------
  | Atom     9: H
  |   Hirshfeld charge        :      0.13734869
  |   Free atom volume        :     10.44207651
  |   Hirshfeld volume        :      6.71477917
  |   Hirshfeld dipole vector :     -0.06308539       0.08857480       0.06679866
  |   Hirshfeld dipole moment :      0.12762179
  |   Hirshfeld second moments:      0.10358969       0.00137197      -0.01856053
  |                                  0.00137197       0.10081754      -0.01041491
  |                                 -0.01856053      -0.01041491       0.11493564
  ----------------------------------------------------------------------
  | Atom    10: H
  |   Hirshfeld charge        :      0.13231770
  |   Free atom volume        :     10.44207651
  |   Hirshfeld volume        :      8.17854744
  |   Hirshfeld dipole vector :      0.04877073       0.06690278      -0.07120585
  |   Hirshfeld dipole moment :      0.10920090
  |   Hirshfeld second moments:      0.07731872      -0.01415155      -0.00519244
  |                                 -0.01415155       0.08681614      -0.00722049
  |                                 -0.00519244      -0.00722049       0.06989807
  ----------------------------------------------------------------------


------------------------------------------------------------------------------
  Final output of selected total energy values:

  The following output summarizes some interesting total energy values
  at the end of a run (AFTER all relaxation, molecular dynamics, etc.).

  | Total energy of the DFT / Hartree-Fock s.c.f. calculation      :          -6262.322228283 eV
  | Final zero-broadening corrected energy (caution - metals only) :          -6262.325049231 eV
  | For reference only, the value of 1 Hartree used in FHI-aims is :             27.211384500 eV

  Before relying on these values, please be sure to understand exactly which
  total energy value is referred to by a given number. Different objects may
  all carry the same name 'total energy'. Definitions:

  Total energy of the DFT / Hartree-Fock s.c.f. calculation:
  | Note that this energy does not include ANY quantities calculated after the
  | s.c.f. cycle, in particular not ANY RPA, MP2, etc. many-body perturbation terms.

  Final zero-broadening corrected energy:
  | For metallic systems only, a broadening of the occupation numbers at the Fermi
  | level can be extrapolated back to zero broadening by an electron-gas inspired
  | formula. For all systems that are not real metals, this value can be
  | meaningless and should be avoided.

------------------------------------------------------------------------------

------------------------------------------------------------
          Leaving FHI-aims.
          Date     :  20150727, Time     :  130451.465

          Computational steps:
          | Number of self-consistency cycles          :           14

          Detailed time accounting                     :  max(cpu_time)    wall_clock(cpu1)
          | Total time                                 :       13.082 s          13.116 s
          | Preparation time                           :        0.171 s           0.672 s
          | Grid partitioning                          :        0.098 s           0.098 s
          | Preloading free-atom quantities on grid    :        0.013 s           0.014 s
          | Free-atom superposition energy             :        0.034 s           0.034 s
          | Total time for integrations                :        5.011 s           5.011 s
          | Total time for solution of K.-S. equations :        0.330 s           0.334 s
          | Total time for density & force components  :        4.050 s           4.046 s
          | Total time for mixing                      :        0.110 s           0.111 s
          | Total time for Hartree multipole update    :        0.054 s           0.051 s
          | Total time for Hartree multipole sum       :        2.502 s           2.506 s
          | Total time for total energy evaluation     :        0.008 s           0.015 s
          | Total time for scaled ZORA corrections     :        0.000 s           0.000 s
          | Total time for TS (2009) vdW correction    :        0.027 s           0.030 s

          Have a nice day.
------------------------------------------------------------
