  MPI-parallelism will be employed.
------------------------------------------------------------
          Invoking FHI-aims ...
          Version 081213
          Compiled on 2013/08/29 at 17:41:06 on host generoso.

          When using FHI-aims, please cite the following reference:

          Volker Blum, Ralf Gehrke, Felix Hanke, Paula Havu,
          Ville Havu, Xinguo Ren, Karsten Reuter, and Matthias Scheffler,
          'Ab Initio Molecular Simulations with Numeric Atom-Centered Orbitals: FHI-aims',
          Computer Physics Communications 180, 2175-2196 (2009)

          For any questions about FHI-aims, please visit the aimsclub website
          with its forums and wiki. Contributions to both the forums and the
          wiki are warmly encouraged - they are for you, and everyone is welcome there.

------------------------------------------------------------

  Date     :  20150727, Time     :  125036.416
  Time zero on CPU 1             :   0.409930000000000E-01  s.
  Internal wall clock time zero  :           207233436.416  s.

  Using        8 parallel tasks.
  Task        0 on host gen59 reporting.
  Task        1 on host gen59 reporting.
  Task        2 on host gen59 reporting.
  Task        3 on host gen59 reporting.
  Task        4 on host gen59 reporting.
  Task        5 on host gen59 reporting.
  Task        6 on host gen59 reporting.
  Task        7 on host gen59 reporting.

  Performing system and environment tests:
  | Environment variable OMP_NUM_THREADS correctly set to 1.
  | Checking for scalapack...
  | No scalapack compiled in.

  Obtaining array dimensions for all initial allocations:
  
  -----------------------------------------------------------------------
  Parsing control.in (first pass over file, find array dimensions only).
  The contents of control.in will be repeated verbatim below
  unless switched off by setting 'verbatim_writeout .false.' .
  in the first line of control.in .
  -----------------------------------------------------------------------
  
  #########################################################################################
  #
  #  Volker Blum, FHI 2008 : Test run input file control.in
  #
  #########################################################################################
  #
  #  Physical model
  #
    xc                 rpbe
    spin               none
    relativistic       atomic_zora scalar
    charge             0.
   vdw_correction_hirshfeld
  #
  #  SCF convergence
  #
    occupation_type    gaussian 0.01
    mixer              pulay
      n_max_pulay        10
      charge_mix_param   0.1
    sc_accuracy_rho    5E-5
    sc_accuracy_eev    5E-3
    sc_accuracy_etot   5E-6
    sc_iter_limit      3000
  #
  #  Eigenvalue solver
  #
    KS_method          lapack
      empty_states       8
      basis_threshold    0.e-5
  #
  #  Efficiency
  #
  #   all previous settings are now default, except stratmann still
  #   undecided. Continue to handle stratmann with care, if at all.
  #
  #  partition_type stratmann
    partition_type rho_r2
  #  hartree_partition_type stratmann
  #
  #  Oprions for large clusters (100's of atoms: memory saving / better scaling)
  #
  # for periodic systems:
  #
    density_update_method orbital
    packed_matrix_format none
  #  k_grid 6 6 6
  #  output k_eigenvalue 1
  #  distributed_spline_storage .true.
  #
  #  Relaxation
  #
  #  relax_geometry   bfgs 5.e-3
    sc_accuracy_forces 5.E-4
    final_forces_cleaned .true.
  #
  #  Output options
  #
  #  output mulliken
    output Hirshfeld
  #  output dipole
  
  #harmonic_length_scale 0.001
  
  ################################################################################
  #
  #  FHI-aims code project
  #  VB, Fritz-Haber Institut, 2007
  #
  #  Suggested "safe" defaults for H atom (to be pasted into control.in file)
  #  Basis constructed for a non-relativistic H2 molecule using the
  #  PW-LDA functional.
  #
  ################################################################################
    species        H
  #     global species definitions
      nucleus             1
      cut_pot             4.0  2.0  1.0
      cut_free_atom       finite 8.0
      logarithmic         0.00010000 100.00  1.0123
      basis_dep_cutoff    1d-4  # 1d-4 is safe default - please check 5d-4 if you wish!
      radial_base         24 7.0
      radial_multiplier   2
      angular_grids       specified
        division   0.2783  110
        division   0.3822  194
        division   0.5626  302
  #      division   0.5922  434
  #      division   0.6227  590
  #      division   0.7206  770
        outer_grid  302
      l_hartree           4
  ################################################################################
  #
  #  Definition of "minimal" basis
  #
  ################################################################################
  #     valence basis states
      valence      1  s   1.
  #     ion occupancy
      ion_occ      1  s   0.5
  ################################################################################
  #
  #  Suggested additional basis functions. For production calculations,
  #  uncomment them one after another (the most important basis functions are
  #  listed first).
  #
  ################################################################################
  #  "First tier" - improvements: -1014.90 meV to -62.69 meV
       hydro 2 s 2.1
       hydro 2 p 3.5
  #  "Second tier" - improvements: -12.89 meV to -1.83 meV
       hydro 1 s 0.85
       hydro 2 p 3.7
       hydro 2 s 1.2
       hydro 3 d 7
  #  "Third tier" - improvements: -0.25 meV to -0.12 meV
  #     hydro 4 f 11.2
  #     hydro 3 p 4.8
  #     hydro 4 d 9
  #     hydro 3 s 3.2
  
  ################################################################################
  #
  #  FHI-aims code project
  #  VB, Fritz-Haber Institut, 2007
  #
  #  Suggested "safe" defaults for O atom (to be pasted into control.in file)
  #  All values have been tested for a non-relativistic, non-spinpolarized O2
  #  molecule using the PW-LDA functional. Validity for PBE is expected.
  #
  #  Constructed for dimers: 1.0 A, 1.208 A, 1.5 A, 2.0 A, 3.0 A
  #
  ################################################################################
    species        O
  #     global species definitions
      nucleus             8
      mass                15.9994
      l_hartree           4
      cut_pot             4.0  2.0  1.0
      cut_free_atom       finite 8.0
      basis_dep_cutoff    1d-4  # 1d-4 is safe default - please check 5d-4 if you wish!
      logarithmic         0.00010000 100.00  1.0123
      radial_base         36 7.0
      radial_multiplier   2
       angular_grids specified
        division   0.4087  110
        division   0.5181  194
        division   0.6184  302
  #      division   0.7315  434
  #      division   0.7934  590
  #      division   0.9656  770
  #      division   1.4041  974
  #      outer_grid 974
        outer_grid 302
  ################################################################################
  #
  #  Definition of "minimal" basis
  #
  ################################################################################
  #     valence basis states
      valence      2  s   2.
      valence      2  p   4.
  #     ion occupancy
      ion_occ      2  s   1.
      ion_occ      2  p   3.
  ################################################################################
  #
  #  Suggested additional basis functions. For production calculations,
  #  uncomment them one after another (the most important basis functions are
  #  listed first).
  #
  ################################################################################
  #  "First tier" - improvements: -699.05 meV to -159.38 meV
       hydro 2 p 1.8
       hydro 3 d 7.6
       hydro 3 s 6.4
  #  "Second tier" - improvements: -49.91 meV to -5.39 meV
       hydro 4 f 11.6
       hydro 3 p 6.2
       hydro 3 d 5.6
       hydro 5 g 17.6
       hydro 1 s 0.75
  #  "Third tier" - improvements: -2.83 meV to -0.50 meV
  #     ionic 2 p auto
  #     hydro 4 f 10.8
  #     hydro 4 d 4.7
  #     hydro 2 s 6.8
  #  "Fourth tier" - improvements: -0.40 meV to -0.12 meV
  #     hydro 3 p 5
  #     hydro 3 s 3.3
  #     hydro 5 g 15.6
  #     hydro 4 f 17.6
  #     hydro 4 d 14
  # Further basis functions - -0.08 meV and below
  #     hydro 3 s 2.1
  #     hydro 4 d 11.6
  #     hydro 3 p 16
  #     hydro 2 s 17.2
  
  
  -----------------------------------------------------------------------
  Completed first pass over input file control.in .
  -----------------------------------------------------------------------
  
  
  -----------------------------------------------------------------------
  Parsing geometry.in (first pass over file, find array dimensions only).
  The contents of geometry.in will be repeated verbatim below
  unless switched off by setting 'verbatim_writeout .false.' .
  in the first line of geometry.in .
  -----------------------------------------------------------------------
  
  atom      -4.053030000      0.065001000     -1.525160000  O
  atom      -4.566710000      0.974813000     -1.912820000  H
  atom      -3.067820000      0.330172000     -1.477310000  H
  atom      -4.370360000     -0.049164000     -0.572274000  H
  atom      -5.293160000      2.192130000     -2.328800000  O
  atom      -4.829300000      2.988660000     -1.973850000  H
  atom      -5.428570000      2.328640000     -3.235170000  H
  atom      -1.975360000      2.858040000      0.453140000  O
  atom      -1.223550000      3.375850000      0.786238000  H
  atom      -2.537520000      2.567960000      1.156120000  H
  atom      -4.066610000      4.258280000     -0.900064000  O
  atom      -3.224110000      3.876870000     -0.569443000  H
  atom      -3.737450000      5.116530000     -1.322720000  H
  
  -----------------------------------------------------------------------
  Completed first pass over input file geometry.in .
  -----------------------------------------------------------------------
  
 
  Basic array size parameters: 
  | Number of species                 :        2
  | Number of atoms                   :       13
  | Max. basis fn. angular momentum   :        4
  | Max. atomic/ionic basis occupied n:        2
  | Max. number of basis fn. types    :        2
  | Max. radial fns per species/type  :        8
  | Max. logarithmic grid size        :     1301
  | Max. radial integration grid size :       73
  | Max. angular integration grid size:      302
  | Max. angular grid division number :        8
  | Radial grid for Hartree potential :     1301
  | Number of spin channels           :        1

------------------------------------------------------------
          Reading file control.in.
------------------------------------------------------------
  XC: Using RPBE gradient-corrected functionals.
  Spin treatment: No spin polarisation.
  Scalar relativistic treatment of kinetic energy: on-site free-atom approximation to ZORA.
  Charge =   0.000000E+00: Neutral system requested explicitly.
  Using non-empirical van der Waals correction (Hirshfeld partitioning):
  Occupation type: Gaussian broadening, width =   0.100000E-01 eV.
  Using pulay charge density mixing.
  Pulay mixing - number of memorized iterations:   10
  Charge density mixing - mixing parameter:     0.1000
  Convergence accuracy of self-consistent charge density: 0.5000E-04
  Convergence accuracy of sum of eigenvalues: 0.5000E-02
  Convergence accuracy of total energy: 0.5000E-05
  Maximum number of s.-c. iterations  :  3000
  Kohn-Sham eigenvalues and eigenfunctions calculated by lapack diagonalisation (D&C).
  Number of empty states per atom:        8
  Threshold for basis singularities: 0.0000E+00
  Partition function in integrals calculations: rho / r^2
 Using packed matrix format           0
  Convergence accuracy of forces: 0.5000E-03
  Cleaning forces before final output.
  Hirshfeld charge analysis will be performed.
 
  Reading configuration options for species H                   .
  | Found nuclear charge :   1.0000
  | Found cutoff potl. onset [A], width [A], scale factor :    4.00000    2.00000    1.00000
  | Found cutoff specification for free atom: Cutoff potential begins at    8.00000 A.
  | Found logarithmic grid data [bohr] : 0.1000E-03 0.1000E+03 0.1012E+01
  | Threshold for basis-dependent cutoff potential is   0.100000E-03
  | Found data for basic radial integration grid :    24 points, outermost radius =    7.000 A
  | Found multiplier for basic radial grid :   2
  | Found angular grid specification: user-specified.
  | Specified grid contains     4 separate shells.
  | Check grid settings after all constraints further below.
  | Found l_max for Hartree potential  :   4
  | Found free-atom valence shell :  1 s   1.000
  | No ionic wave fns used. Skipping ion_occ.
  | Found hydrogenic basis function :  2 s   2.100
  | Found hydrogenic basis function :  2 p   3.500
  | Found hydrogenic basis function :  1 s   0.850
  | Found hydrogenic basis function :  2 p   3.700
  | Found hydrogenic basis function :  2 s   1.200
  | Found hydrogenic basis function :  3 d   7.000
  Species H                   : Missing cutoff potential type.
  Defaulting to exp(1/x)/(1-x)^2 type cutoff potential.
  Species H : On-site basis accuracy parameter (for Gram-Schmidt orthonormalisation) not specified.
  Using default value basis_acc =  0.1000000E-03.
  Species H                   : Using default innermost maximum threshold i_radial=  2 for radial functions.
  Species H                   : Basic radial grid will be enhanced according to radial_multiplier =   2, to contain    49 grid points.
 
  Reading configuration options for species O                   .
  | Found nuclear charge :   8.0000
  | Found atomic mass :    15.9994000000000      amu
  | Found l_max for Hartree potential  :   4
  | Found cutoff potl. onset [A], width [A], scale factor :    4.00000    2.00000    1.00000
  | Found cutoff specification for free atom: Cutoff potential begins at    8.00000 A.
  | Threshold for basis-dependent cutoff potential is   0.100000E-03
  | Found logarithmic grid data [bohr] : 0.1000E-03 0.1000E+03 0.1012E+01
  | Found data for basic radial integration grid :    36 points, outermost radius =    7.000 A
  | Found multiplier for basic radial grid :   2
  | Found angular grid specification: user-specified.
  | Specified grid contains     4 separate shells.
  | Check grid settings after all constraints further below.
  | Found free-atom valence shell :  2 s   2.000
  | Found free-atom valence shell :  2 p   4.000
  | No ionic wave fns used. Skipping ion_occ.
  | No ionic wave fns used. Skipping ion_occ.
  | Found hydrogenic basis function :  2 p   1.800
  | Found hydrogenic basis function :  3 d   7.600
  | Found hydrogenic basis function :  3 s   6.400
  | Found hydrogenic basis function :  4 f  11.600
  | Found hydrogenic basis function :  3 p   6.200
  | Found hydrogenic basis function :  3 d   5.600
  | Found hydrogenic basis function :  5 g  17.600
  | Found hydrogenic basis function :  1 s   0.750
  Species O                   : Missing cutoff potential type.
  Defaulting to exp(1/x)/(1-x)^2 type cutoff potential.
  Species O : On-site basis accuracy parameter (for Gram-Schmidt orthonormalisation) not specified.
  Using default value basis_acc =  0.1000000E-03.
  Species O                   : Using default innermost maximum threshold i_radial=  2 for radial functions.
  Species O                   : Basic radial grid will be enhanced according to radial_multiplier =   2, to contain    73 grid points.
 
  Finished reading input file 'control.in'. Consistency checks are next.
 
  Target number of points in a grid batch is not set. Defaulting to  100
  Method for grid partitioning is not set. Defaulting to parallel hash+maxmin partitioning.
  Batch size limit is not set. Defaulting to    200
  By default, will store active basis functions for each batch.
  If in need of memory, prune_basis_once .false. can be used to disable this option.
  communication_type for Hartree potential was not specified.
  Defaulting to calc_hartree .
  Pulay mixer: Number of initial linear mixing iterations not set.
  Defaulting to    0 iterations.
  Work space size for distributed Hartree potential not set.
  Defaulting to   0.200000E+03 MB.
  Algorithm-dependent basis array size parameters:
  | n_max_pulay                         :       10
  Geometry relaxation not requested: no relaxation will be performed.
  Handling of forces: Unphysical translation and rotation will be removed from forces.
  No accuracy limit for integral partition fn. given. Defaulting to 0.1000E-14.
  No threshold value for u(r) in integrations given. Defaulting to 0.1000E-05.
  No accuracy for occupation numbers given. Defaulting to 0.1000E-07.
  No threshold value for occupation numbers given. Defaulting to 0.0000E+00.
  No accuracy for fermi level given. Defaulting to 0.1000E-19.
  Maximum # of iterations to find E_F not set. Defaulting to  200.
  Will not use alltoall communication since running on < 1024 CPUs.
  Partitioning for Hartree potential was not defined. Using partition_type for integrals.
  | Reporting present value of keyword multip_moments_threshold  :       0.10000000E-09
  | This value may affect high angular momentum components of the Hartree potential in periodic systems.
  No q(lm)/r^(l+1) cutoff set for long-range Hartree potential.
  | Using default value of  0.100000E-09 .
  | Verify using the multipole_threshold keyword.
  Defaulting to new monopole extrapolation.
  Density update method: Loop over occupied states selected for charge density update.
------------------------------------------------------------


------------------------------------------------------------
          Reading geometry description geometry.in.
------------------------------------------------------------
  Input structure read successfully.
  The structure contains       13 atoms,  and a total of         41.000 electrons.

  Input geometry:
  | No unit cell requested.
  | Atomic structure:
  |       Atom                x [A]            y [A]            z [A]
  |    1: Species O             -4.053030         0.065001        -1.525160
  |    2: Species H             -4.566710         0.974813        -1.912820
  |    3: Species H             -3.067820         0.330172        -1.477310
  |    4: Species H             -4.370360        -0.049164        -0.572274
  |    5: Species O             -5.293160         2.192130        -2.328800
  |    6: Species H             -4.829300         2.988660        -1.973850
  |    7: Species H             -5.428570         2.328640        -3.235170
  |    8: Species O             -1.975360         2.858040         0.453140
  |    9: Species H             -1.223550         3.375850         0.786238
  |   10: Species H             -2.537520         2.567960         1.156120
  |   11: Species O             -4.066610         4.258280        -0.900064
  |   12: Species H             -3.224110         3.876870        -0.569443
  |   13: Species H             -3.737450         5.116530        -1.322720
  |

  | The smallest distance between any two atoms is         0.92654057 AA.
  |
  | The first atom of this pair is atom number                      5 .
  | The second atom of this pair is atom number                     7 .

  Structure-dependent array size parameters: 
  | Maximum number of distinct radial functions  :       18
  | Maximum number of basis functions            :      291
  | Number of Kohn-Sham states (occupied + empty):       73
------------------------------------------------------------

------------------------------------------------------------
          Preparing all fixed parts of the calculation.
------------------------------------------------------------
  Determining machine precision:
    2.225073858507201E-308
  Setting up grids for atomic and cluster calculations.

  Creating wave function, potential, and density for free atoms.

  Species: H

  List of occupied orbitals and eigenvalues:
    n    l              occ      energy [Ha]    energy [eV]
    1    0           1.0000        -0.241408        -6.5691


  Species: O

  List of occupied orbitals and eigenvalues:
    n    l              occ      energy [Ha]    energy [eV]
    1    0           2.0000       -18.944147      -515.4965
    2    0           2.0000        -0.883529       -24.0421
    2    1           4.0000        -0.330176        -8.9845

  Creating fixed part of basis set: Ionic, confined, hydrogenic.
 
  H                    hydrogenic:
 
  List of hydrogenic basis orbitals: 
    n    l      effective z      eigenvalue [eV]  inner max. [A]     outer max. [A]     outer radius [A]   
    2    0         2.100000       -14.9965           0.193241           1.317192           5.372934
    2    1         3.500000       -41.6672           0.602363           0.602363           4.056010
    1    0         0.850000        -9.8292           0.624864           0.624864           5.372934
    2    1         3.700000       -46.5653           0.573616           0.573616           3.909951
    2    0         1.200000        -4.5995           0.334977           2.228160           5.505921
    3    2         7.000000       -74.0753           0.680692           0.680692           3.769152
 
 
  O                    hydrogenic:
 
  List of hydrogenic basis orbitals: 
    n    l      effective z      eigenvalue [eV]  inner max. [A]     outer max. [A]     outer radius [A]   
    2    1         1.800000       -11.0118           1.178546           1.178546           5.432516
    3    2         7.600000       -87.3182           0.624117           0.624117           3.541422
    3    0         6.400000       -61.9209           0.061166           1.081887           4.306510
    4    3        11.600000      -114.4238           0.731621           0.731621           3.584982
    3    1         6.200000       -58.1113           0.255677           1.030255           4.306510
    3    2         5.600000       -47.4081           0.847222           0.847222           4.413102
    5    4        17.600000      -168.5799           0.749730           0.749730           3.372413
    1    0         0.750000        -7.6499           0.705275           0.705275           5.366508
 

  Adding cutoff potential to free-atom effective potential.
  Creating atomic-like basis functions for current effective potential.

  Species H                   :

  List of atomic basis orbitals and eigenvalues:
    n    l      energy [Ha]    energy [eV]    outer radius [A]
    1    0        -0.241374        -6.5681       5.372934


  Species O                   :

  List of atomic basis orbitals and eigenvalues:
    n    l      energy [Ha]    energy [eV]    outer radius [A]
    1    0       -18.944147      -515.4965       1.415745
    2    0        -0.883529       -24.0421       5.048305
    2    1        -0.330173        -8.9845       5.301302

  Assembling full basis from fixed parts.
  | Species H :   atomic orbital   1 s accepted.
  | Species H :    hydro orbital   2 s accepted.
  | Species H :    hydro orbital   1 s accepted.
  | Species H :    hydro orbital   2 s accepted.
  | Species H :    hydro orbital   2 p accepted.
  | Species H :    hydro orbital   2 p accepted.
  | Species H :    hydro orbital   3 d accepted.
  | Species O :   atomic orbital   1 s accepted.
  | Species O :    hydro orbital   3 s accepted.
  | Species O :   atomic orbital   2 s accepted.
  | Species O :    hydro orbital   1 s accepted.
  | Species O :    hydro orbital   3 p accepted.
  | Species O :   atomic orbital   2 p accepted.
  | Species O :    hydro orbital   2 p accepted.
  | Species O :    hydro orbital   3 d accepted.
  | Species O :    hydro orbital   3 d accepted.
  | Species O :    hydro orbital   4 f accepted.
  | Species O :    hydro orbital   5 g accepted.
 
  Basis size parameters after reduction:
  | Total number of radial functions:       18
  | Total number of basis functions :      291
 
  Testing on-site integration grid accuracy.
  |  Species  Function  <phi|h_atom|phi> (log., in eV)  <phi|h_atom|phi> (rad., in eV)
           1        1                 -6.5683835025                 -6.5684759159
           1        2                 13.3711789951                 13.3708738703
           1        3                 23.6590910787                 23.6532055418
           1        4                 16.2963827186                 16.1870710655 ***
           1        5                 28.7627214838                 28.7627215090
           1        6                 59.5965249172                 59.5965950857
           1        7                 60.2220506392                 60.2220503827
           2        8               -515.4964576505               -515.4964530710
           2        9                 15.3030791347                 15.3030722972
           2       10                -21.7296094581                -21.7296135470
           2       11                 14.2969371730                 14.2969701621
           2       12                 21.0679693190                 21.0679697493
           2       13                 -2.3833606469                 -2.3833613176
           2       14                 13.7067136422                 13.7066766629
           2       15                 45.8013116808                 45.8013116965
           2       16                 52.2309815402                 52.2309831494
           2       17                 85.4120732416                 85.4120732763
           2       18                142.1019167745                142.1019167817
 * Note: Onsite integrals marked "***" above are less accurate than
 * onsite_accuracy_threshold =    0.03000 eV. Usually, this is harmless.
 * When in doubt, tighten the "radial" and/or "radial_multiplier" flags to check.

  Preparing densities etc. for the partition functions (integrals / Hartree potential).

  Preparations completed.
  max(cpu_time)          :      0.174 s.
  Wall clock time (cpu1) :      0.676 s.
------------------------------------------------------------

------------------------------------------------------------
          Begin self-consistency loop: Initialization.

          Date     :  20150727, Time     :  125037.118
------------------------------------------------------------

  Initializing index lists of integration centers etc. from given atomic structure:
  | Number of centers in hartree potential         :        13
  | Number of centers in hartree multipole         :        13
  | Number of centers in electron density summation:        13
  | Number of centers in basis integrals           :        13
  | Number of centers in integrals                 :        13
  Partitioning the integration grid into batches with parallel hashing+maxmin method.
  | Number of batches:     1890
  | Maximal batch size:     187
  | Minimal batch size:      50
  | Average batch size:      89.398
  | Standard deviation of batch sizes:      27.158

  Integration load balanced across     8 MPI tasks.
  Work distribution over tasks is as follows:
  Task     0 has      21107 integration points.
  Task     1 has      21105 integration points.
  Task     2 has      21086 integration points.
  Task     3 has      21146 integration points.
  Task     4 has      21088 integration points.
  Task     5 has      21130 integration points.
  Task     6 has      21212 integration points.
  Task     7 has      21088 integration points.
  Initializing partition tables, free-atom densities, potentials, etc. across the integration grid (initialize_grid_storage).
  | Net number of integration points:   168962
  | of which are non-zero points    :   168449
  Obtaining max. number of non-zero basis functions in each batch (get_n_compute_maxes).
  | Maximal number of non-zero basis functions:      289 in task     0
  | Maximal number of non-zero basis functions:      289 in task     1
  | Maximal number of non-zero basis functions:      289 in task     2
  | Maximal number of non-zero basis functions:      289 in task     3
  | Maximal number of non-zero basis functions:      289 in task     4
  | Maximal number of non-zero basis functions:      289 in task     5
  | Maximal number of non-zero basis functions:      289 in task     6
  | Maximal number of non-zero basis functions:      289 in task     7
  Integrating Hamiltonian matrix: batch-based integration.
  Time summed over all CPUs for integration: real work        5.407 s, elapsed        5.508 s
  Integrating overlap matrix.
  Time summed over all CPUs for integration: real work        2.873 s, elapsed        2.931 s

  Updating Kohn-Sham eigenvalues, eigenvectors, occupation numbers, and Fermi level.
  Solving generalized eigenproblem
  Updating Kohn-Sham eigenvalues and eigenfunctions.
  Transforming overlap matrix and checking for singularities.
  Overlap matrix is nonsingular:
  | Lowest eigenvalue:  0.302996E-03
  Solving real generalised eigenvalue problem by standard LAPACK (fast)
  Determining occupation numbers for Kohn-Sham eigenstates.
  | Chemical potential (Fermi level) in eV                 : -.27022868E+01
  | Error in electron count due to remaining E_F inaccuracy: -.20463631E-11
  | Maximum occupation number of highest empty state:  0.00E+00

  Writing Kohn-Sham eigenvalues.

  State    Occupation    Eigenvalue [Ha]    Eigenvalue [eV]
      1       2.00000         -19.064960         -518.78396
      2       2.00000         -19.064887         -518.78197
      3       2.00000         -19.056644         -518.55766
      4       2.00000         -19.042959         -518.18528
      5       2.00000          -1.127964          -30.69346
      6       2.00000          -1.113051          -30.28767
      7       2.00000          -1.107344          -30.13235
      8       2.00000          -1.086390          -29.56217
      9       2.00000          -0.653778          -17.79020
     10       2.00000          -0.649081          -17.66238
     11       2.00000          -0.627495          -17.07500
     12       2.00000          -0.620508          -16.88488
     13       2.00000          -0.609054          -16.57319
     14       2.00000          -0.529523          -14.40906
     15       2.00000          -0.513511          -13.97335
     16       2.00000          -0.501233          -13.63925
     17       2.00000          -0.487177          -13.25676
     18       2.00000          -0.452821          -12.32189
     19       2.00000          -0.443463          -12.06723
     20       2.00000          -0.433159          -11.78686
     21       1.00000          -0.099307           -2.70229
     22       0.00000          -0.067839           -1.84599
     23       0.00000          -0.056766           -1.54469
     24       0.00000          -0.030407           -0.82741
     25       0.00000          -0.022979           -0.62529
     26       0.00000           0.001748            0.04756
     27       0.00000           0.029098            0.79180
     28       0.00000           0.046611            1.26834
     29       0.00000           0.055166            1.50114
     30       0.00000           0.072218            1.96516
     31       0.00000           0.073612            2.00307
     32       0.00000           0.089786            2.44319
     33       0.00000           0.090473            2.46189
     34       0.00000           0.102590            2.79161
     35       0.00000           0.106942            2.91005
     36       0.00000           0.107176            2.91640
     37       0.00000           0.115147            3.13331
     38       0.00000           0.132062            3.59359
     39       0.00000           0.140705            3.82878
     40       0.00000           0.142118            3.86724
     41       0.00000           0.173504            4.72129
     42       0.00000           0.180056            4.89957
     43       0.00000           0.213457            5.80845
     44       0.00000           0.229156            6.23564
     45       0.00000           0.236074            6.42390
     46       0.00000           0.248154            6.75263
     47       0.00000           0.259009            7.04799
     48       0.00000           0.277896            7.56194
     49       0.00000           0.302409            8.22896
     50       0.00000           0.311544            8.47754
     51       0.00000           0.325875            8.86751
     52       0.00000           0.342596            9.32251
     53       0.00000           0.357106            9.71734
     54       0.00000           0.370774           10.08927
     55       0.00000           0.387232           10.53711
     56       0.00000           0.395173           10.75319
     57       0.00000           0.405644           11.03812
     58       0.00000           0.429104           11.67653
     59       0.00000           0.437138           11.89513
     60       0.00000           0.440829           11.99556
     61       0.00000           0.463763           12.61963
     62       0.00000           0.482413           13.12713
     63       0.00000           0.513465           13.97209
     64       0.00000           0.528775           14.38871
     65       0.00000           0.555474           15.11521
     66       0.00000           0.586164           15.95033
     67       0.00000           0.586627           15.96294
     68       0.00000           0.616906           16.78687
     69       0.00000           0.678249           18.45609
     70       0.00000           0.685119           18.64304
     71       0.00000           0.700774           19.06903
     72       0.00000           0.745860           20.29588
     73       0.00000           0.753435           20.50200

  Highest occupied state (VBM) at    -11.78685529 eV
  | Occupation number:      2.00000000

  Lowest unoccupied state (CBM) at    -2.70228683 eV
  | Occupation number:      1.00000000

  Overall HOMO-LUMO gap:      9.08456846 eV.
  Calculating total energy contributions from superposition of free atom densities.

  Total energy components:
  | Sum of eigenvalues            :        -174.46930861 Ha       -4747.55143994 eV
  | XC energy correction          :         -36.83605085 Ha       -1002.35994316 eV
  | XC potential correction       :          47.08035502 Ha        1281.12164275 eV
  | Free-atom electrostatic energy:        -142.69791510 Ha       -3883.00783501 eV
  | Hartree energy correction     :           0.00000000 Ha           0.00000000 eV
  | van der Waals energy corr.    :           0.00000000 Ha           0.00000000 eV
  | Entropy correction            :          -0.00010367 Ha          -0.00282095 eV
  | ---------------------------
  | Total energy                  :        -306.92291954 Ha       -8351.79757537 eV
  | Total energy, T -> 0          :        -306.92302320 Ha       -8351.80039631 eV  <-- do not rely on this value for anything but (periodic) metals
  | Electronic free energy        :        -306.92312687 Ha       -8351.80321726 eV

  Derived energy quantities:
  | Kinetic energy                :         304.04022319 Ha        8273.35541676 eV
  | Electrostatic energy          :        -574.12709188 Ha      -15622.79304896 eV
  | Energy correction for multipole
  | error in Hartree potential    :           0.00000000 Ha           0.00000000 eV
  | Sum of eigenvalues per atom                           :        -365.19626461 eV
  | Total energy (T->0) per atom                          :        -642.44618433 eV  <-- do not rely on this value for anything but (periodic) metals
  | Electronic free energy per atom                       :        -642.44640133 eV
  Initialize hartree_potential_storage
  Max. number of atoms included in rho_multipole:           13

  End scf initialization - timings             :  max(cpu_time)    wall_clock(cpu1)
  | Time for scf. initialization               :        1.500 s           1.500 s
  | Boundary condition initialization          :        0.000 s           0.001 s
  | Integration                                :        1.058 s           1.058 s
  | Solution of K.-S. eqns.                    :        0.136 s           0.136 s
  | Grid partitioning                          :        0.140 s           0.139 s
  | Preloading free-atom quantities on grid    :        0.014 s           0.014 s
  | Free-atom superposition energy             :        0.051 s           0.051 s
  | Total energy evaluation                    :        0.000 s           0.000 s
------------------------------------------------------------

------------------------------------------------------------
          Begin self-consistency iteration #    1

  Date     :  20150727, Time     :  125038.618
------------------------------------------------------------
  Evaluating new KS density.
  Integration grid: deviation in total charge (<rho> - N_e) =  -2.025047E-12
  Pulay mixing of updated and previous charge densities.

  Evaluating partitioned Hartree potential by multipole expansion.
  | Analytical far-field extrapolation by fixed multipoles:
  | Hartree multipole sum: apparent total charge =  -0.681049E-06
  Summing up the Hartree potential.
  Time summed over all CPUs for potential: real work        1.922 s, elapsed        1.928 s
  | RMS charge density error from multipole expansion :   0.152866E-02

  Integrating Hamiltonian matrix: batch-based integration.
  Time summed over all CPUs for integration: real work        5.406 s, elapsed        5.499 s

  Updating Kohn-Sham eigenvalues, eigenvectors, occupation numbers, and Fermi level.
  Solving generalized eigenproblem
  Updating Kohn-Sham eigenvalues and eigenfunctions.
  Solving real generalised eigenvalue problem by standard LAPACK (fast)
  Determining occupation numbers for Kohn-Sham eigenstates.
  | Chemical potential (Fermi level) in eV                 : -.25132287E+01
  | Error in electron count due to remaining E_F inaccuracy: 0.53640079E-08
  | Maximum occupation number of highest empty state:  0.00E+00

  Writing Kohn-Sham eigenvalues.

  State    Occupation    Eigenvalue [Ha]    Eigenvalue [eV]
      1       2.00000         -19.014337         -517.40643
      2       2.00000         -18.993026         -516.82654
      3       2.00000         -18.978197         -516.42300
      4       2.00000         -18.966325         -516.09995
      5       2.00000          -1.100978          -29.95914
      6       2.00000          -1.082132          -29.44632
      7       2.00000          -1.068644          -29.07929
      8       2.00000          -1.047034          -28.49124
      9       2.00000          -0.623058          -16.95428
     10       2.00000          -0.615647          -16.75261
     11       2.00000          -0.608515          -16.55855
     12       2.00000          -0.598719          -16.29198
     13       2.00000          -0.574955          -15.64531
     14       2.00000          -0.497956          -13.55006
     15       2.00000          -0.476540          -12.96730
     16       2.00000          -0.463964          -12.62509
     17       2.00000          -0.458473          -12.47568
     18       2.00000          -0.417840          -11.37002
     19       2.00000          -0.403171          -10.97083
     20       2.00000          -0.392605          -10.68333
     21       1.00000          -0.092359           -2.51323
     22       0.00000          -0.060437           -1.64457
     23       0.00000          -0.049191           -1.33856
     24       0.00000          -0.023286           -0.63365
     25       0.00000          -0.018247           -0.49652
     26       0.00000           0.008168            0.22227
     27       0.00000           0.038698            1.05303
     28       0.00000           0.051836            1.41053
     29       0.00000           0.064804            1.76339
     30       0.00000           0.078675            2.14086
     31       0.00000           0.081683            2.22270
     32       0.00000           0.095176            2.58987
     33       0.00000           0.100133            2.72475
     34       0.00000           0.109517            2.98011
     35       0.00000           0.115173            3.13401
     36       0.00000           0.119026            3.23886
     37       0.00000           0.126396            3.43940
     38       0.00000           0.139897            3.80679
     39       0.00000           0.148527            4.04161
     40       0.00000           0.149966            4.08077
     41       0.00000           0.181094            4.92782
     42       0.00000           0.188109            5.11870
     43       0.00000           0.217913            5.92971
     44       0.00000           0.235178            6.39953
     45       0.00000           0.243063            6.61407
     46       0.00000           0.255314            6.94744
     47       0.00000           0.265799            7.23276
     48       0.00000           0.284020            7.72857
     49       0.00000           0.310201            8.44101
     50       0.00000           0.319123            8.68377
     51       0.00000           0.332042            9.03532
     52       0.00000           0.350880            9.54792
     53       0.00000           0.364486            9.91818
     54       0.00000           0.378701           10.30497
     55       0.00000           0.393291           10.70201
     56       0.00000           0.402955           10.96495
     57       0.00000           0.413713           11.25769
     58       0.00000           0.436520           11.87831
     59       0.00000           0.444053           12.08329
     60       0.00000           0.449680           12.23641
     61       0.00000           0.472384           12.85423
     62       0.00000           0.488531           13.29360
     63       0.00000           0.522824           14.22678
     64       0.00000           0.538380           14.65006
     65       0.00000           0.564655           15.36505
     66       0.00000           0.595464           16.20340
     67       0.00000           0.599171           16.30426
     68       0.00000           0.627690           17.08030
     69       0.00000           0.686090           18.66946
     70       0.00000           0.697096           18.96894
     71       0.00000           0.711671           19.36554
     72       0.00000           0.755364           20.55450
     73       0.00000           0.759905           20.67806

  Highest occupied state (VBM) at     -2.51322871 eV
  | Occupation number:      1.00000001

  Lowest unoccupied state (CBM) at    -1.64456614 eV
  | Occupation number:      0.00000000

  Overall HOMO-LUMO gap:      0.86866256 eV.

  Total energy components:
  | Sum of eigenvalues            :        -172.85659101 Ha       -4703.66716121 eV
  | XC energy correction          :         -37.01083923 Ha       -1007.11617684 eV
  | XC potential correction       :          47.30851154 Ha        1287.33009761 eV
  | Free-atom electrostatic energy:        -142.69791510 Ha       -3883.00783501 eV
  | Hartree energy correction     :          -1.57164139 Ha         -42.76653819 eV
  | van der Waals energy corr.    :           0.00000000 Ha           0.00000000 eV
  | Entropy correction            :          -0.00010367 Ha          -0.00282095 eV
  | ---------------------------
  | Total energy                  :        -306.82847518 Ha       -8349.22761365 eV
  | Total energy, T -> 0          :        -306.82857885 Ha       -8349.23043460 eV  <-- do not rely on this value for anything but (periodic) metals
  | Electronic free energy        :        -306.82868252 Ha       -8349.23325554 eV

  Derived energy quantities:
  | Kinetic energy                :         305.11682579 Ha        8302.65126395 eV
  | Electrostatic energy          :        -574.93446174 Ha      -15644.76270076 eV
  | Energy correction for multipole
  | error in Hartree potential    :           0.00041289 Ha           0.01123535 eV
  | Sum of eigenvalues per atom                           :        -361.82055086 eV
  | Total energy (T->0) per atom                          :        -642.24849497 eV  <-- do not rely on this value for anything but (periodic) metals
  | Electronic free energy per atom                       :        -642.24871196 eV

  Self-consistency convergence accuracy:
  | Change of charge density      : 0.5681E+00
  | Change of sum of eigenvalues  : 0.4388E+02 eV
  | Change of total energy        : 0.2570E+01 eV

  End self-consistency iteration #     1       :  max(cpu_time)    wall_clock(cpu1)
  | Time for this iteration                    :        1.445 s           1.445 s
  | Charge density update                      :        0.471 s           0.471 s
  | Density mixing                             :        0.003 s           0.003 s
  | Hartree multipole update                   :        0.004 s           0.004 s
  | Hartree multipole summation                :        0.242 s           0.242 s
  | Integration                                :        0.689 s           0.689 s
  | Solution of K.-S. eqns.                    :        0.036 s           0.035 s
  | Total energy evaluation                    :        0.000 s           0.000 s
------------------------------------------------------------

------------------------------------------------------------
          Begin self-consistency iteration #    2

  Date     :  20150727, Time     :  125040.063
------------------------------------------------------------
  Evaluating new KS density.
  Integration grid: deviation in total charge (<rho> - N_e) =   5.364022E-09
  Pulay mixing of updated and previous charge densities.

  Evaluating partitioned Hartree potential by multipole expansion.
  | Analytical far-field extrapolation by fixed multipoles:
  | Hartree multipole sum: apparent total charge =  -0.264386E-05
  Summing up the Hartree potential.
  Time summed over all CPUs for potential: real work        1.922 s, elapsed        1.929 s
  | RMS charge density error from multipole expansion :   0.625543E-02

  Integrating Hamiltonian matrix: batch-based integration.
  Time summed over all CPUs for integration: real work        5.388 s, elapsed        5.484 s

  Updating Kohn-Sham eigenvalues, eigenvectors, occupation numbers, and Fermi level.
  Solving generalized eigenproblem
  Updating Kohn-Sham eigenvalues and eigenfunctions.
  Solving real generalised eigenvalue problem by standard LAPACK (fast)
  Determining occupation numbers for Kohn-Sham eigenstates.
  | Chemical potential (Fermi level) in eV                 : -.20644206E+01
  | Error in electron count due to remaining E_F inaccuracy: 0.38044305E-08
  | Maximum occupation number of highest empty state:  0.00E+00

  Highest occupied state (VBM) at     -2.06442059 eV
  | Occupation number:      1.00000000

  Lowest unoccupied state (CBM) at    -1.16131883 eV
  | Occupation number:      0.00000000

  Overall HOMO-LUMO gap:      0.90310176 eV.

  Total energy components:
  | Sum of eigenvalues            :        -168.94404643 Ha       -4597.20140627 eV
  | XC energy correction          :         -37.45723838 Ha       -1019.26331594 eV
  | XC potential correction       :          47.88984533 Ha        1303.14899480 eV
  | Free-atom electrostatic energy:        -142.69791510 Ha       -3883.00783501 eV
  | Hartree energy correction     :          -5.51195465 Ha        -149.98791723 eV
  | van der Waals energy corr.    :           0.00000000 Ha           0.00000000 eV
  | Entropy correction            :          -0.00010367 Ha          -0.00282095 eV
  | ---------------------------
  | Total energy                  :        -306.72130922 Ha       -8346.31147965 eV
  | Total energy, T -> 0          :        -306.72141289 Ha       -8346.31430060 eV  <-- do not rely on this value for anything but (periodic) metals
  | Electronic free energy        :        -306.72151656 Ha       -8346.31712155 eV

  Derived energy quantities:
  | Kinetic energy                :         307.39711903 Ha        8364.70120001 eV
  | Electrostatic energy          :        -576.66118987 Ha      -15691.74936372 eV
  | Energy correction for multipole
  | error in Hartree potential    :           0.00097391 Ha           0.02650135 eV
  | Sum of eigenvalues per atom                           :        -353.63087741 eV
  | Total energy (T->0) per atom                          :        -642.02417697 eV  <-- do not rely on this value for anything but (periodic) metals
  | Electronic free energy per atom                       :        -642.02439397 eV

  Self-consistency convergence accuracy:
  | Change of charge density      : 0.4327E+00
  | Change of sum of eigenvalues  : 0.1065E+03 eV
  | Change of total energy        : 0.2916E+01 eV

  End self-consistency iteration #     2       :  max(cpu_time)    wall_clock(cpu1)
  | Time for this iteration                    :        1.442 s           1.443 s
  | Charge density update                      :        0.468 s           0.469 s
  | Density mixing                             :        0.005 s           0.004 s
  | Hartree multipole update                   :        0.004 s           0.005 s
  | Hartree multipole summation                :        0.242 s           0.242 s
  | Integration                                :        0.687 s           0.686 s
  | Solution of K.-S. eqns.                    :        0.036 s           0.036 s
  | Total energy evaluation                    :        0.000 s           0.000 s
------------------------------------------------------------

------------------------------------------------------------
          Begin self-consistency iteration #    3

  Date     :  20150727, Time     :  125041.506
------------------------------------------------------------
  Evaluating new KS density.
  Integration grid: deviation in total charge (<rho> - N_e) =   3.804438E-09
  Pulay mixing of updated and previous charge densities.

  Evaluating partitioned Hartree potential by multipole expansion.
  | Analytical far-field extrapolation by fixed multipoles:
  | Hartree multipole sum: apparent total charge =  -0.238916E-05
  Summing up the Hartree potential.
  Time summed over all CPUs for potential: real work        1.922 s, elapsed        1.929 s
  | RMS charge density error from multipole expansion :   0.125438E-01

  Integrating Hamiltonian matrix: batch-based integration.
  Time summed over all CPUs for integration: real work        5.389 s, elapsed        5.486 s

  Updating Kohn-Sham eigenvalues, eigenvectors, occupation numbers, and Fermi level.
  Solving generalized eigenproblem
  Updating Kohn-Sham eigenvalues and eigenfunctions.
  Solving real generalised eigenvalue problem by standard LAPACK (fast)
  Determining occupation numbers for Kohn-Sham eigenstates.
  | Chemical potential (Fermi level) in eV                 : -.19908984E+01
  | Error in electron count due to remaining E_F inaccuracy: 0.00000000E+00
  | Maximum occupation number of highest empty state:  0.00E+00

  Highest occupied state (VBM) at     -1.99089841 eV
  | Occupation number:      1.00000000

  Lowest unoccupied state (CBM) at    -1.99089841 eV
  | Occupation number:      1.00000000

  Overall HOMO-LUMO gap:      0.00000000 eV.

  Total energy components:
  | Sum of eigenvalues            :        -169.13396850 Ha       -4602.36944874 eV
  | XC energy correction          :         -37.45751749 Ha       -1019.27091093 eV
  | XC potential correction       :          47.88341321 Ha        1302.97396804 eV
  | Free-atom electrostatic energy:        -142.69791510 Ha       -3883.00783501 eV
  | Hartree energy correction     :          -5.31409006 Ha        -144.60374800 eV
  | van der Waals energy corr.    :           0.00000000 Ha           0.00000000 eV
  | Entropy correction            :          -0.00010367 Ha          -0.00282095 eV
  | ---------------------------
  | Total energy                  :        -306.72007794 Ha       -8346.27797465 eV
  | Total energy, T -> 0          :        -306.72018161 Ha       -8346.28079560 eV  <-- do not rely on this value for anything but (periodic) metals
  | Electronic free energy        :        -306.72028527 Ha       -8346.28361655 eV

  Derived energy quantities:
  | Kinetic energy                :         306.06157948 Ha        8328.35932004 eV
  | Electrostatic energy          :        -575.32413993 Ha      -15655.36638375 eV
  | Energy correction for multipole
  | error in Hartree potential    :          -0.00169150 Ha          -0.04602811 eV
  | Sum of eigenvalues per atom                           :        -354.02841913 eV
  | Total energy (T->0) per atom                          :        -642.02159966 eV  <-- do not rely on this value for anything but (periodic) metals
  | Electronic free energy per atom                       :        -642.02181666 eV

  Self-consistency convergence accuracy:
  | Change of charge density      : 0.2085E+00
  | Change of sum of eigenvalues  : -.5168E+01 eV
  | Change of total energy        : 0.3351E-01 eV

  End self-consistency iteration #     3       :  max(cpu_time)    wall_clock(cpu1)
  | Time for this iteration                    :        1.442 s           1.442 s
  | Charge density update                      :        0.467 s           0.466 s
  | Density mixing                             :        0.006 s           0.006 s
  | Hartree multipole update                   :        0.004 s           0.005 s
  | Hartree multipole summation                :        0.241 s           0.242 s
  | Integration                                :        0.688 s           0.687 s
  | Solution of K.-S. eqns.                    :        0.035 s           0.035 s
  | Total energy evaluation                    :        0.000 s           0.000 s
------------------------------------------------------------

------------------------------------------------------------
          Begin self-consistency iteration #    4

  Date     :  20150727, Time     :  125042.948
------------------------------------------------------------
  Evaluating new KS density.
  Integration grid: deviation in total charge (<rho> - N_e) =  -2.842171E-14
  Pulay mixing of updated and previous charge densities.

  Evaluating partitioned Hartree potential by multipole expansion.
  | Analytical far-field extrapolation by fixed multipoles:
  | Hartree multipole sum: apparent total charge =  -0.267086E-05
  Summing up the Hartree potential.
  Time summed over all CPUs for potential: real work        1.921 s, elapsed        1.928 s
  | RMS charge density error from multipole expansion :   0.161900E-01

  Integrating Hamiltonian matrix: batch-based integration.
  Time summed over all CPUs for integration: real work        5.381 s, elapsed        5.482 s

  Updating Kohn-Sham eigenvalues, eigenvectors, occupation numbers, and Fermi level.
  Solving generalized eigenproblem
  Updating Kohn-Sham eigenvalues and eigenfunctions.
  Solving real generalised eigenvalue problem by standard LAPACK (fast)
  Determining occupation numbers for Kohn-Sham eigenstates.
  | Chemical potential (Fermi level) in eV                 : -.18874635E+01
  | Error in electron count due to remaining E_F inaccuracy: 0.00000000E+00
  | Maximum occupation number of highest empty state:  0.00E+00

  Highest occupied state (VBM) at     -1.88746350 eV
  | Occupation number:      1.00000000

  Lowest unoccupied state (CBM) at    -1.88746350 eV
  | Occupation number:      1.00000000

  Overall HOMO-LUMO gap:      0.00000000 eV.

  Total energy components:
  | Sum of eigenvalues            :        -168.27777001 Ha       -4579.07110261 eV
  | XC energy correction          :         -37.57794872 Ha       -1022.54801139 eV
  | XC potential correction       :          48.03790100 Ha        1307.17779473 eV
  | Free-atom electrostatic energy:        -142.69791510 Ha       -3883.00783501 eV
  | Hartree energy correction     :          -6.20118550 Ha        -168.74284297 eV
  | van der Waals energy corr.    :           0.00000000 Ha           0.00000000 eV
  | Entropy correction            :          -0.00010367 Ha          -0.00282095 eV
  | ---------------------------
  | Total energy                  :        -306.71691833 Ha       -8346.19199726 eV
  | Total energy, T -> 0          :        -306.71702200 Ha       -8346.19481820 eV  <-- do not rely on this value for anything but (periodic) metals
  | Electronic free energy        :        -306.71712566 Ha       -8346.19763915 eV

  Derived energy quantities:
  | Kinetic energy                :         306.06681921 Ha        8328.50190026 eV
  | Electrostatic energy          :        -575.20578882 Ha      -15652.14588613 eV
  | Energy correction for multipole
  | error in Hartree potential    :          -0.00269363 Ha          -0.07329752 eV
  | Sum of eigenvalues per atom                           :        -352.23623866 eV
  | Total energy (T->0) per atom                          :        -642.01498602 eV  <-- do not rely on this value for anything but (periodic) metals
  | Electronic free energy per atom                       :        -642.01520301 eV

  Self-consistency convergence accuracy:
  | Change of charge density      : 0.9058E-01
  | Change of sum of eigenvalues  : 0.2330E+02 eV
  | Change of total energy        : 0.8598E-01 eV

  End self-consistency iteration #     4       :  max(cpu_time)    wall_clock(cpu1)
  | Time for this iteration                    :        1.443 s           1.443 s
  | Charge density update                      :        0.467 s           0.467 s
  | Density mixing                             :        0.007 s           0.007 s
  | Hartree multipole update                   :        0.005 s           0.005 s
  | Hartree multipole summation                :        0.241 s           0.242 s
  | Integration                                :        0.687 s           0.686 s
  | Solution of K.-S. eqns.                    :        0.036 s           0.036 s
  | Total energy evaluation                    :        0.000 s           0.000 s
------------------------------------------------------------

------------------------------------------------------------
          Begin self-consistency iteration #    5

  Date     :  20150727, Time     :  125044.391
------------------------------------------------------------
  Evaluating new KS density.
  Integration grid: deviation in total charge (<rho> - N_e) =   7.105427E-15
  Pulay mixing of updated and previous charge densities.

  Evaluating partitioned Hartree potential by multipole expansion.
  | Analytical far-field extrapolation by fixed multipoles:
  | Hartree multipole sum: apparent total charge =  -0.266564E-05
  Summing up the Hartree potential.
  Time summed over all CPUs for potential: real work        1.921 s, elapsed        1.928 s
  | RMS charge density error from multipole expansion :   0.162635E-01

  Integrating Hamiltonian matrix: batch-based integration.
  Time summed over all CPUs for integration: real work        5.378 s, elapsed        5.486 s

  Updating Kohn-Sham eigenvalues, eigenvectors, occupation numbers, and Fermi level.
  Solving generalized eigenproblem
  Updating Kohn-Sham eigenvalues and eigenfunctions.
  Solving real generalised eigenvalue problem by standard LAPACK (fast)
  Determining occupation numbers for Kohn-Sham eigenstates.
  | Chemical potential (Fermi level) in eV                 : -.19247462E+01
  | Error in electron count due to remaining E_F inaccuracy: 0.00000000E+00
  | Maximum occupation number of highest empty state:  0.00E+00

  Highest occupied state (VBM) at     -1.92474618 eV
  | Occupation number:      1.00000000

  Lowest unoccupied state (CBM) at    -1.92474618 eV
  | Occupation number:      1.00000000

  Overall HOMO-LUMO gap:      0.00000000 eV.

  Total energy components:
  | Sum of eigenvalues            :        -168.35178763 Ha       -4581.08522446 eV
  | XC energy correction          :         -37.57044947 Ha       -1022.34394644 eV
  | XC potential correction       :          48.02780716 Ha        1306.90312724 eV
  | Free-atom electrostatic energy:        -142.69791510 Ha       -3883.00783501 eV
  | Hartree energy correction     :          -6.12442266 Ha        -166.65401972 eV
  | van der Waals energy corr.    :           0.00000000 Ha           0.00000000 eV
  | Entropy correction            :          -0.00010367 Ha          -0.00282095 eV
  | ---------------------------
  | Total energy                  :        -306.71676770 Ha       -8346.18789840 eV
  | Total energy, T -> 0          :        -306.71687136 Ha       -8346.19071935 eV  <-- do not rely on this value for anything but (periodic) metals
  | Electronic free energy        :        -306.71697503 Ha       -8346.19354029 eV

  Derived energy quantities:
  | Kinetic energy                :         306.06036676 Ha        8328.32632018 eV
  | Electrostatic energy          :        -575.20668499 Ha      -15652.17027214 eV
  | Energy correction for multipole
  | error in Hartree potential    :          -0.00286729 Ha          -0.07802293 eV
  | Sum of eigenvalues per atom                           :        -352.39117111 eV
  | Total energy (T->0) per atom                          :        -642.01467072 eV  <-- do not rely on this value for anything but (periodic) metals
  | Electronic free energy per atom                       :        -642.01488771 eV

  Self-consistency convergence accuracy:
  | Change of charge density      : 0.1854E-01
  | Change of sum of eigenvalues  : -.2014E+01 eV
  | Change of total energy        : 0.4099E-02 eV

  End self-consistency iteration #     5       :  max(cpu_time)    wall_clock(cpu1)
  | Time for this iteration                    :        1.445 s           1.445 s
  | Charge density update                      :        0.468 s           0.468 s
  | Density mixing                             :        0.008 s           0.008 s
  | Hartree multipole update                   :        0.005 s           0.005 s
  | Hartree multipole summation                :        0.241 s           0.241 s
  | Integration                                :        0.687 s           0.687 s
  | Solution of K.-S. eqns.                    :        0.035 s           0.036 s
  | Total energy evaluation                    :        0.000 s           0.000 s
------------------------------------------------------------

------------------------------------------------------------
          Begin self-consistency iteration #    6

  Date     :  20150727, Time     :  125045.836
------------------------------------------------------------
  Evaluating new KS density.
  Integration grid: deviation in total charge (<rho> - N_e) =   7.105427E-15
  Pulay mixing of updated and previous charge densities.

  Evaluating partitioned Hartree potential by multipole expansion.
  | Analytical far-field extrapolation by fixed multipoles:
  | Hartree multipole sum: apparent total charge =  -0.266249E-05
  Summing up the Hartree potential.
  Time summed over all CPUs for potential: real work        1.921 s, elapsed        1.928 s
  | RMS charge density error from multipole expansion :   0.165340E-01

  Integrating Hamiltonian matrix: batch-based integration.
  Time summed over all CPUs for integration: real work        5.381 s, elapsed        5.484 s

  Updating Kohn-Sham eigenvalues, eigenvectors, occupation numbers, and Fermi level.
  Solving generalized eigenproblem
  Updating Kohn-Sham eigenvalues and eigenfunctions.
  Solving real generalised eigenvalue problem by standard LAPACK (fast)
  Determining occupation numbers for Kohn-Sham eigenstates.
  | Chemical potential (Fermi level) in eV                 : -.19292244E+01
  | Error in electron count due to remaining E_F inaccuracy: 0.00000000E+00
  | Maximum occupation number of highest empty state:  0.00E+00

  Highest occupied state (VBM) at     -1.92922438 eV
  | Occupation number:      1.00000000

  Lowest unoccupied state (CBM) at    -1.92922438 eV
  | Occupation number:      1.00000000

  Overall HOMO-LUMO gap:      0.00000000 eV.

  Total energy components:
  | Sum of eigenvalues            :        -168.35266853 Ha       -4581.10919494 eV
  | XC energy correction          :         -37.57257329 Ha       -1022.40173851 eV
  | XC potential correction       :          48.03028915 Ha        1306.97066576 eV
  | Free-atom electrostatic energy:        -142.69791510 Ha       -3883.00783501 eV
  | Hartree energy correction     :          -6.12392834 Ha        -166.64056885 eV
  | van der Waals energy corr.    :           0.00000000 Ha           0.00000000 eV
  | Entropy correction            :          -0.00010367 Ha          -0.00282095 eV
  | ---------------------------
  | Total energy                  :        -306.71679611 Ha       -8346.18867155 eV
  | Total energy, T -> 0          :        -306.71689978 Ha       -8346.19149250 eV  <-- do not rely on this value for anything but (periodic) metals
  | Electronic free energy        :        -306.71700345 Ha       -8346.19431345 eV

  Derived energy quantities:
  | Kinetic energy                :         306.04659569 Ha        8327.95159027 eV
  | Electrostatic energy          :        -575.19081851 Ha      -15651.73852332 eV
  | Energy correction for multipole
  | error in Hartree potential    :          -0.00302876 Ha          -0.08241681 eV
  | Sum of eigenvalues per atom                           :        -352.39301500 eV
  | Total energy (T->0) per atom                          :        -642.01473019 eV  <-- do not rely on this value for anything but (periodic) metals
  | Electronic free energy per atom                       :        -642.01494719 eV

  Self-consistency convergence accuracy:
  | Change of charge density      : 0.7126E-02
  | Change of sum of eigenvalues  : -.2397E-01 eV
  | Change of total energy        : -.7732E-03 eV

  End self-consistency iteration #     6       :  max(cpu_time)    wall_clock(cpu1)
  | Time for this iteration                    :        1.444 s           1.444 s
  | Charge density update                      :        0.465 s           0.465 s
  | Density mixing                             :        0.010 s           0.010 s
  | Hartree multipole update                   :        0.004 s           0.004 s
  | Hartree multipole summation                :        0.242 s           0.242 s
  | Integration                                :        0.687 s           0.686 s
  | Solution of K.-S. eqns.                    :        0.035 s           0.035 s
  | Total energy evaluation                    :        0.000 s           0.000 s
------------------------------------------------------------

------------------------------------------------------------
          Begin self-consistency iteration #    7

  Date     :  20150727, Time     :  125047.281
------------------------------------------------------------
  Evaluating new KS density.
  Integration grid: deviation in total charge (<rho> - N_e) =   7.105427E-15
  Pulay mixing of updated and previous charge densities.

  Evaluating partitioned Hartree potential by multipole expansion.
  | Analytical far-field extrapolation by fixed multipoles:
  | Hartree multipole sum: apparent total charge =  -0.267477E-05
  Summing up the Hartree potential.
  Time summed over all CPUs for potential: real work        1.921 s, elapsed        1.928 s
  | RMS charge density error from multipole expansion :   0.165486E-01

  Integrating Hamiltonian matrix: batch-based integration.
  Time summed over all CPUs for integration: real work        5.385 s, elapsed        5.483 s

  Updating Kohn-Sham eigenvalues, eigenvectors, occupation numbers, and Fermi level.
  Solving generalized eigenproblem
  Updating Kohn-Sham eigenvalues and eigenfunctions.
  Solving real generalised eigenvalue problem by standard LAPACK (fast)
  Determining occupation numbers for Kohn-Sham eigenstates.
  | Chemical potential (Fermi level) in eV                 : -.19407428E+01
  | Error in electron count due to remaining E_F inaccuracy: 0.00000000E+00
  | Maximum occupation number of highest empty state:  0.00E+00

  Highest occupied state (VBM) at     -1.94074278 eV
  | Occupation number:      1.00000000

  Lowest unoccupied state (CBM) at    -1.94074278 eV
  | Occupation number:      1.00000000

  Overall HOMO-LUMO gap:      0.00000000 eV.

  Total energy components:
  | Sum of eigenvalues            :        -168.40054245 Ha       -4582.41191064 eV
  | XC energy correction          :         -37.56804194 Ha       -1022.27843418 eV
  | XC potential correction       :          48.02422914 Ha        1306.80576443 eV
  | Free-atom electrostatic energy:        -142.69791510 Ha       -3883.00783501 eV
  | Hartree energy correction     :          -6.07450933 Ha        -165.29580902 eV
  | van der Waals energy corr.    :           0.00000000 Ha           0.00000000 eV
  | Entropy correction            :          -0.00010367 Ha          -0.00282095 eV
  | ---------------------------
  | Total energy                  :        -306.71677968 Ha       -8346.18822442 eV
  | Total energy, T -> 0          :        -306.71688335 Ha       -8346.19104537 eV  <-- do not rely on this value for anything but (periodic) metals
  | Electronic free energy        :        -306.71698701 Ha       -8346.19386632 eV

  Derived energy quantities:
  | Kinetic energy                :         306.07816319 Ha        8328.81058567 eV
  | Electrostatic energy          :        -575.22690093 Ha      -15652.72037591 eV
  | Energy correction for multipole
  | error in Hartree potential    :          -0.00315484 Ha          -0.08584754 eV
  | Sum of eigenvalues per atom                           :        -352.49322390 eV
  | Total energy (T->0) per atom                          :        -642.01469580 eV  <-- do not rely on this value for anything but (periodic) metals
  | Electronic free energy per atom                       :        -642.01491279 eV

  Self-consistency convergence accuracy:
  | Change of charge density      : 0.5723E-02
  | Change of sum of eigenvalues  : -.1303E+01 eV
  | Change of total energy        : 0.4471E-03 eV

  End self-consistency iteration #     7       :  max(cpu_time)    wall_clock(cpu1)
  | Time for this iteration                    :        1.446 s           1.445 s
  | Charge density update                      :        0.466 s           0.466 s
  | Density mixing                             :        0.010 s           0.010 s
  | Hartree multipole update                   :        0.005 s           0.004 s
  | Hartree multipole summation                :        0.242 s           0.242 s
  | Integration                                :        0.686 s           0.687 s
  | Solution of K.-S. eqns.                    :        0.036 s           0.035 s
  | Total energy evaluation                    :        0.000 s           0.000 s
------------------------------------------------------------

------------------------------------------------------------
          Begin self-consistency iteration #    8

  Date     :  20150727, Time     :  125048.726
------------------------------------------------------------
  Evaluating new KS density.
  Integration grid: deviation in total charge (<rho> - N_e) =   1.421085E-14
  Pulay mixing of updated and previous charge densities.

  Evaluating partitioned Hartree potential by multipole expansion.
  | Analytical far-field extrapolation by fixed multipoles:
  | Hartree multipole sum: apparent total charge =  -0.265203E-05
  Summing up the Hartree potential.
  Time summed over all CPUs for potential: real work        1.921 s, elapsed        1.928 s
  | RMS charge density error from multipole expansion :   0.165548E-01

  Integrating Hamiltonian matrix: batch-based integration.
  Time summed over all CPUs for integration: real work        5.376 s, elapsed        5.472 s

  Updating Kohn-Sham eigenvalues, eigenvectors, occupation numbers, and Fermi level.
  Solving generalized eigenproblem
  Updating Kohn-Sham eigenvalues and eigenfunctions.
  Solving real generalised eigenvalue problem by standard LAPACK (fast)
  Determining occupation numbers for Kohn-Sham eigenstates.
  | Chemical potential (Fermi level) in eV                 : -.19484051E+01
  | Error in electron count due to remaining E_F inaccuracy: 0.00000000E+00
  | Maximum occupation number of highest empty state:  0.00E+00

  Highest occupied state (VBM) at     -1.94840507 eV
  | Occupation number:      1.00000000

  Lowest unoccupied state (CBM) at    -1.94840507 eV
  | Occupation number:      1.00000000

  Overall HOMO-LUMO gap:      0.00000000 eV.

  Total energy components:
  | Sum of eigenvalues            :        -168.42247846 Ha       -4583.00881989 eV
  | XC energy correction          :         -37.56603149 Ha       -1022.22372694 eV
  | XC potential correction       :          48.02154346 Ha        1306.73268350 eV
  | Free-atom electrostatic energy:        -142.69791510 Ha       -3883.00783501 eV
  | Hartree energy correction     :          -6.05189571 Ha        -164.68046110 eV
  | van der Waals energy corr.    :           0.00000000 Ha           0.00000000 eV
  | Entropy correction            :          -0.00010367 Ha          -0.00282095 eV
  | ---------------------------
  | Total energy                  :        -306.71677729 Ha       -8346.18815946 eV
  | Total energy, T -> 0          :        -306.71688096 Ha       -8346.19098040 eV  <-- do not rely on this value for anything but (periodic) metals
  | Electronic free energy        :        -306.71698463 Ha       -8346.19380135 eV

  Derived energy quantities:
  | Kinetic energy                :         306.08460789 Ha        8328.98595486 eV
  | Electrostatic energy          :        -575.23535369 Ha      -15652.95038738 eV
  | Energy correction for multipole
  | error in Hartree potential    :          -0.00321003 Ha          -0.08734943 eV
  | Sum of eigenvalues per atom                           :        -352.53913999 eV
  | Total energy (T->0) per atom                          :        -642.01469080 eV  <-- do not rely on this value for anything but (periodic) metals
  | Electronic free energy per atom                       :        -642.01490780 eV

  Self-consistency convergence accuracy:
  | Change of charge density      : 0.2150E-02
  | Change of sum of eigenvalues  : -.5969E+00 eV
  | Change of total energy        : 0.6497E-04 eV

  End self-consistency iteration #     8       :  max(cpu_time)    wall_clock(cpu1)
  | Time for this iteration                    :        1.443 s           1.443 s
  | Charge density update                      :        0.464 s           0.464 s
  | Density mixing                             :        0.011 s           0.012 s
  | Hartree multipole update                   :        0.004 s           0.004 s
  | Hartree multipole summation                :        0.242 s           0.242 s
  | Integration                                :        0.685 s           0.685 s
  | Solution of K.-S. eqns.                    :        0.036 s           0.036 s
  | Total energy evaluation                    :        0.000 s           0.000 s
------------------------------------------------------------

------------------------------------------------------------
          Begin self-consistency iteration #    9

  Date     :  20150727, Time     :  125050.169
------------------------------------------------------------
  Evaluating new KS density.
  Integration grid: deviation in total charge (<rho> - N_e) =   7.105427E-15
  Pulay mixing of updated and previous charge densities.

  Evaluating partitioned Hartree potential by multipole expansion.
  | Analytical far-field extrapolation by fixed multipoles:
  | Hartree multipole sum: apparent total charge =  -0.264702E-05
  Summing up the Hartree potential.
  Time summed over all CPUs for potential: real work        1.921 s, elapsed        1.928 s
  | RMS charge density error from multipole expansion :   0.165535E-01

  Integrating Hamiltonian matrix: batch-based integration.
  Time summed over all CPUs for integration: real work        5.376 s, elapsed        5.470 s

  Updating Kohn-Sham eigenvalues, eigenvectors, occupation numbers, and Fermi level.
  Solving generalized eigenproblem
  Updating Kohn-Sham eigenvalues and eigenfunctions.
  Solving real generalised eigenvalue problem by standard LAPACK (fast)
  Determining occupation numbers for Kohn-Sham eigenstates.
  | Chemical potential (Fermi level) in eV                 : -.19486007E+01
  | Error in electron count due to remaining E_F inaccuracy: -.60326286E-08
  | Maximum occupation number of highest empty state:  0.00E+00

  Highest occupied state (VBM) at     -7.40388385 eV
  | Occupation number:      2.00000000

  Lowest unoccupied state (CBM) at    -1.94860066 eV
  | Occupation number:      0.99999999

  Overall HOMO-LUMO gap:      5.45528319 eV.

  Total energy components:
  | Sum of eigenvalues            :        -168.42119796 Ha       -4582.97397563 eV
  | XC energy correction          :         -37.56626309 Ha       -1022.23002908 eV
  | XC potential correction       :          48.02184691 Ha        1306.74094062 eV
  | Free-atom electrostatic energy:        -142.69791510 Ha       -3883.00783501 eV
  | Hartree energy correction     :          -6.05324769 Ha        -164.71725049 eV
  | van der Waals energy corr.    :           0.00000000 Ha           0.00000000 eV
  | Entropy correction            :          -0.00010367 Ha          -0.00282095 eV
  | ---------------------------
  | Total energy                  :        -306.71677693 Ha       -8346.18814960 eV
  | Total energy, T -> 0          :        -306.71688060 Ha       -8346.19097055 eV  <-- do not rely on this value for anything but (periodic) metals
  | Electronic free energy        :        -306.71698426 Ha       -8346.19379149 eV

  Derived energy quantities:
  | Kinetic energy                :         306.08946536 Ha        8329.11813327 eV
  | Electrostatic energy          :        -575.23997920 Ha      -15653.07625379 eV
  | Energy correction for multipole
  | error in Hartree potential    :          -0.00321773 Ha          -0.08755892 eV
  | Sum of eigenvalues per atom                           :        -352.53645966 eV
  | Total energy (T->0) per atom                          :        -642.01469004 eV  <-- do not rely on this value for anything but (periodic) metals
  | Electronic free energy per atom                       :        -642.01490704 eV

  Self-consistency convergence accuracy:
  | Change of charge density      : 0.7409E-03
  | Change of sum of eigenvalues  : 0.3484E-01 eV
  | Change of total energy        : 0.9857E-05 eV

  End self-consistency iteration #     9       :  max(cpu_time)    wall_clock(cpu1)
  | Time for this iteration                    :        1.445 s           1.445 s
  | Charge density update                      :        0.465 s           0.465 s
  | Density mixing                             :        0.013 s           0.013 s
  | Hartree multipole update                   :        0.004 s           0.004 s
  | Hartree multipole summation                :        0.242 s           0.242 s
  | Integration                                :        0.685 s           0.685 s
  | Solution of K.-S. eqns.                    :        0.035 s           0.035 s
  | Total energy evaluation                    :        0.001 s           0.001 s
------------------------------------------------------------

------------------------------------------------------------
          Begin self-consistency iteration #   10

  Date     :  20150727, Time     :  125051.614
------------------------------------------------------------
  Evaluating new KS density.
  Integration grid: deviation in total charge (<rho> - N_e) =  -6.032607E-09
[...]
  | Electronic free energy        :        -306.71933772 Ha       -8346.25783215 eV

  Derived energy quantities:
  | Kinetic energy                :         306.08903390 Ha        8329.10639271 eV
  | Electrostatic energy          :        -575.23963362 Ha      -15653.06685007 eV
  | Energy correction for multipole
  | error in Hartree potential    :          -0.00323347 Ha          -0.08798712 eV
  | Sum of eigenvalues per atom                           :        -352.53840787 eV
  | Total energy (T->0) per atom                          :        -642.01961625 eV  <-- do not rely on this value for anything but (periodic) metals
  | Electronic free energy per atom                       :        -642.01983324 eV

  atomic forces [eV/Ang]:
  -----------------------
  atom #    1
   Hellmann-Feynman + Multipole  : -.232531E+01 -.845004E+01 -.681201E+01
   Pulay + GGA                   : 0.223660E+01 0.917880E+01 0.622195E+01
   Van der Waals               : 0.622633E-02 0.148140E-03 0.686712E-02
   ----------------------------------------------------------------
   Total forces(   1)            : -.824859E-01 0.728904E+00 -.583194E+00
  atom #    2
   Hellmann-Feynman + Multipole  : 0.727583E-02 -.260112E+00 0.718505E-01
   Pulay + GGA                   : -.276986E-01 0.560399E-01 -.359358E-01
   Van der Waals               : 0.282960E-02 0.340163E-02 0.307254E-02
   ----------------------------------------------------------------
   Total forces(   2)            : -.175932E-01 -.200671E+00 0.389873E-01
  atom #    3
   Hellmann-Feynman + Multipole  : -.222662E+00 -.163012E+00 0.133394E+00
   Pulay + GGA                   : 0.160025E+00 0.202330E-01 -.146923E-01
   Van der Waals               : 0.183909E-02 -.360266E-02 -.116094E-02
   ----------------------------------------------------------------
   Total forces(   3)            : -.607981E-01 -.146382E+00 0.117541E+00
  atom #    4
   Hellmann-Feynman + Multipole  : 0.583435E-01 -.455063E-01 0.157549E+00
   Pulay + GGA                   : -.603272E-01 -.247400E-01 0.171578E+00
   Van der Waals               : 0.205102E-02 0.103754E-02 0.144909E-02
   ----------------------------------------------------------------
   Total forces(   4)            : 0.673098E-04 -.692087E-01 0.330575E+00
  atom #    5
   Hellmann-Feynman + Multipole  : -.635907E+01 -.668740E+01 0.888534E+01
   Pulay + GGA                   : 0.673934E+01 0.574351E+01 -.630569E+01
   Van der Waals               : -.331187E-02 0.197468E-02 -.278641E-02
   ----------------------------------------------------------------
   Total forces(   5)            : 0.376956E+00 -.941915E+00 0.257686E+01
  atom #    6
   Hellmann-Feynman + Multipole  : 0.106327E+00 0.342145E+00 0.311024E+00
   Pulay + GGA                   : 0.490226E-01 0.759543E-01 0.102302E-01
   Van der Waals               : -.427954E-03 0.730592E-02 0.516444E-03
   ----------------------------------------------------------------
   Total forces(   6)            : 0.154922E+00 0.425405E+00 0.321771E+00
  atom #    7
   Hellmann-Feynman + Multipole  : -.316237E+00 0.293610E+00 -.254171E+01
   Pulay + GGA                   : -.260818E-01 0.202298E-01 -.125882E+00
   Van der Waals               : -.210081E-03 0.349970E-02 -.346130E-03
   ----------------------------------------------------------------
   Total forces(   7)            : -.342529E+00 0.317340E+00 -.266794E+01
  atom #    8
   Hellmann-Feynman + Multipole  : -.890310E+00 -.474462E+01 -.152028E+02
   Pulay + GGA                   : 0.161547E+01 0.510575E+01 0.133189E+02
   Van der Waals               : -.359115E-02 -.325668E-02 -.229089E-02
   ----------------------------------------------------------------
   Total forces(   8)            : 0.721566E+00 0.357866E+00 -.188618E+01
  atom #    9
   Hellmann-Feynman + Multipole  : -.233858E+00 -.140370E+00 0.415209E+00
   Pulay + GGA                   : 0.112334E+00 0.605617E-01 0.518916E-01
   Van der Waals               : -.293254E-02 -.100357E-02 -.246717E-02
   ----------------------------------------------------------------
   Total forces(   9)            : -.124456E+00 -.808117E-01 0.464633E+00
  atom #   10
   Hellmann-Feynman + Multipole  : -.471946E+00 -.264429E+00 0.129609E+01
   Pulay + GGA                   : -.808797E-01 -.575075E-01 0.101562E+00
   Van der Waals               : -.930929E-03 -.746479E-03 -.118248E-02
   ----------------------------------------------------------------
   Total forces(  10)            : -.553757E+00 -.322683E+00 0.139647E+01
  atom #   11
   Hellmann-Feynman + Multipole  : -.121699E+02 -.278334E+01 0.286705E+01
   Pulay + GGA                   : 0.127089E+02 0.427846E+01 -.382733E+01
   Van der Waals               : -.156946E-02 0.364618E-03 -.182877E-02
   ----------------------------------------------------------------
   Total forces(  11)            : 0.537397E+00 0.149548E+01 -.962101E+00
  atom #   12
   Hellmann-Feynman + Multipole  : 0.180852E-01 -.293519E+00 0.268947E+00
   Pulay + GGA                   : 0.799460E-01 -.348731E-01 0.240684E-01
   Van der Waals               : -.415458E-03 -.342219E-02 -.778425E-03
   ----------------------------------------------------------------
   Total forces(  12)            : 0.976157E-01 -.331814E+00 0.292237E+00
  atom #   13
   Hellmann-Feynman + Multipole  : -.756357E+00 -.133359E+01 0.609500E+00
   Pulay + GGA                   : 0.528387E-01 0.102478E+00 -.594384E-01
   Van der Waals               : 0.443407E-03 -.570064E-02 0.936027E-03
   ----------------------------------------------------------------
   Total forces(  13)            : -.703075E+00 -.123681E+01 0.550998E+00
  Timings for vdw_correction_hirshfeld (Tkatchenko-Scheffler 2009):
  | CPU time:        3.887 s, Wall clock time:        3.887 s.
  Removing unitary transformations (pure translations, rotations) from forces on atoms.
  Atomic forces before filtering:
  | Net force on center of mass :  0.383056E-02 -.530119E-02 -.933173E-02 eV/A
  | Net torque on center of mass:  0.757997E-02 -.248760E-02 -.553920E-02 eV
  Atomic forces after filtering:
  | Net force on center of mass :  -.178406E-15 0.000000E+00 -.892031E-15 eV/A
  | Net torque on center of mass:  0.944085E-16 -.590053E-15 -.377634E-15 eV
 
  Energy and forces in a compact form:
  | Total energy uncorrected      :         -0.834625219025533E+04 eV
  | Total energy corrected        :         -0.834625501120324E+04 eV  <-- do not rely on this value for anything but (periodic) metals
  | Electronic free energy        :         -0.834625783215116E+04 eV
  Total atomic forces (unitary forces cleaned) [eV/Ang]:
  |   1         -0.826365443064716E-01          0.729229673717305E+00         -0.582190479065758E+00
  |   2         -0.178339192916399E-01         -0.200427947657714E+00          0.399156347637648E-01
  |   3         -0.609658460974849E-01         -0.145977102657387E+00          0.118457455644957E+00
  |   4         -0.201689820727239E-04         -0.687961255808407E-01          0.331610686441263E+00
  |   5          0.376601086960761E+00         -0.941774343865571E+00          0.257769214889830E+01
  |   6          0.154527635569752E+00          0.425621385227572E+00          0.322481324273425E+00
  |   7         -0.342946387411090E+00          0.317365512737651E+00         -0.266711392833516E+01
  |   8          0.721320262415084E+00          0.358575357028405E+00         -0.188561726830554E+01
  |   9         -0.124721206767371E+00         -0.800074984011841E-01          0.465092286871206E+00
  |  10         -0.553940034019586E+00         -0.321934455342687E+00          0.139710054429559E+01
  |  11          0.536969735135360E+00          0.149587820997847E+01         -0.961581118803931E+00
  |  12          0.972356963268057E-01         -0.331315982293417E+00          0.292752681226594E+00
  |  13         -0.703590309532047E+00         -0.123643668289061E+01          0.551400032095288E+00
 
  ------------------------------------ 
  Start decomposition of the XC Energy 
  ------------------------------------ 
  Hartree-Fock part   :          0.000000000 Ha              0.000000000 eV
  ------------------------------------ 
  X Energy            :        -36.235281289 Ha           -986.012171619 eV
  C Energy GGA        :         -1.330896289 Ha            -36.215530644 eV
  Total XC Energy     :        -37.566177578 Ha          -1022.227702263 eV
  LDA X and C from self-consistent density 
  X Energy LDA        :        -32.662764033 Ha           -888.799030944 eV
  C Energy LDA        :         -2.679281022 Ha            -72.906946062 eV
  ------------------------------------ 
  End decomposition of the XC Energy 
  ------------------------------------ 
  Performing Hirshfeld analysis of fragment charges and moments.
  ----------------------------------------------------------------------
  | Atom     1: O
  |   Hirshfeld charge        :     -0.13701995
  |   Free atom volume        :     23.95238533
  |   Hirshfeld volume        :     23.69774077
  |   Hirshfeld dipole vector :     -0.00572223       0.04310263       0.01096719
  |   Hirshfeld dipole moment :      0.04484261
  |   Hirshfeld second moments:      0.04877155      -0.00408767      -0.00730403
  |                                 -0.00408767       0.00175181      -0.02715071
  |                                 -0.00730403      -0.02715071       0.01931022
  ----------------------------------------------------------------------
  | Atom     2: H
  |   Hirshfeld charge        :      0.10416313
  |   Free atom volume        :     10.44207651
  |   Hirshfeld volume        :     10.55479911
  |   Hirshfeld dipole vector :     -0.00509397       0.01806117      -0.00484839
  |   Hirshfeld dipole moment :      0.01938198
  |   Hirshfeld second moments:      0.02992549       0.01611843       0.00704396
  |                                  0.01611843       0.01673810       0.00799598
  |                                  0.00704396       0.00799598       0.03713607
  ----------------------------------------------------------------------
  | Atom     3: H
  |   Hirshfeld charge        :      0.07340102
  |   Free atom volume        :     10.44207651
  |   Hirshfeld volume        :     14.30525380
  |   Hirshfeld dipole vector :     -0.00761769       0.03212453      -0.00951540
  |   Hirshfeld dipole moment :      0.03435925
  |   Hirshfeld second moments:     -0.06160034       0.00062186      -0.00828217
  |                                  0.00062186      -0.01960753       0.01178845
  |                                 -0.00828217       0.01178845      -0.04079497
  ----------------------------------------------------------------------
  | Atom     4: H
  |   Hirshfeld charge        :      0.05182866
  |   Free atom volume        :     10.44207651
  |   Hirshfeld volume        :     15.98235230
  |   Hirshfeld dipole vector :     -0.01174446       0.02647259      -0.03531792
  |   Hirshfeld dipole moment :      0.04567369
  |   Hirshfeld second moments:     -0.05124941       0.00764238       0.00721668
  |                                  0.00764238      -0.04871956       0.00973224
  |                                  0.00721668       0.00973224      -0.11850537
  ----------------------------------------------------------------------
  | Atom     5: O
  |   Hirshfeld charge        :     -0.21513902
  |   Free atom volume        :     23.95238533
  |   Hirshfeld volume        :     21.91032365
  |   Hirshfeld dipole vector :      0.03000417       0.00999226      -0.01813638
  |   Hirshfeld dipole moment :      0.03645577
  |   Hirshfeld second moments:      0.00607051      -0.00175180       0.03421754
  |                                 -0.00175180       0.06038713       0.00433145
  |                                  0.03421754       0.00433145       0.06455349
  ----------------------------------------------------------------------
  | Atom     6: H
  |   Hirshfeld charge        :      0.10348361
  |   Free atom volume        :     10.44207651
  |   Hirshfeld volume        :      9.38943973
  |   Hirshfeld dipole vector :      0.01734294       0.03490386       0.00594194
  |   Hirshfeld dipole moment :      0.03942542
  |   Hirshfeld second moments:      0.04218173      -0.01813145       0.00684636
  |                                 -0.01813145       0.04516593      -0.01825330
  |                                  0.00684636      -0.01825330       0.05731901
  ----------------------------------------------------------------------
  | Atom     7: H
  |   Hirshfeld charge        :      0.12947646
  |   Free atom volume        :     10.44207651
  |   Hirshfeld volume        :      9.59226192
  |   Hirshfeld dipole vector :     -0.01740516       0.01360971      -0.08133264
  |   Hirshfeld dipole moment :      0.08428026
  |   Hirshfeld second moments:      0.04925270       0.00477503       0.01416336
  |                                  0.00477503       0.07447673       0.00555804
  |                                  0.01416336       0.00555804       0.05345191
  ----------------------------------------------------------------------
  | Atom     8: O
  |   Hirshfeld charge        :     -0.27526713
  |   Free atom volume        :     23.95238533
  |   Hirshfeld volume        :     23.10851735
  |   Hirshfeld dipole vector :     -0.01515995       0.05077049       0.04290890
  |   Hirshfeld dipole moment :      0.06818094
  |   Hirshfeld second moments:      0.04286498       0.04135426       0.00702779
  |                                  0.04135426      -0.02993626      -0.02598462
  |                                  0.00702779      -0.02598462       0.00561260
  ----------------------------------------------------------------------
  | Atom     9: H
  |   Hirshfeld charge        :      0.12350549
  |   Free atom volume        :     10.44207651
  |   Hirshfeld volume        :      9.52564913
  |   Hirshfeld dipole vector :      0.07324145       0.05970897       0.02513236
  |   Hirshfeld dipole moment :      0.09778091
  |   Hirshfeld second moments:      0.07596144       0.01067648      -0.00345980
  |                                  0.01067648       0.03600080      -0.01761015
  |                                 -0.00345980      -0.01761015       0.06166844
  ----------------------------------------------------------------------
  | Atom    10: H
  |   Hirshfeld charge        :      0.09659911
  |   Free atom volume        :     10.44207651
  |   Hirshfeld volume        :     11.37221685
  |   Hirshfeld dipole vector :     -0.04432606       0.01306304       0.05462341
  |   Hirshfeld dipole moment :      0.07154830
  |   Hirshfeld second moments:      0.02842297       0.00134098       0.01990770
  |                                  0.00134098      -0.01220923       0.00631907
  |                                  0.01990770       0.00631907       0.04159352
  ----------------------------------------------------------------------
  | Atom    11: O
  |   Hirshfeld charge        :     -0.26418345
  |   Free atom volume        :     23.95238533
  |   Hirshfeld volume        :     22.40458212
  |   Hirshfeld dipole vector :      0.03115427      -0.00865363      -0.02574291
  |   Hirshfeld dipole moment :      0.04133002
  |   Hirshfeld second moments:      0.01171632       0.00698304       0.03028469
  |                                  0.00698304       0.05062571      -0.02649098
  |                                  0.03028469      -0.02649098      -0.01001125
  ----------------------------------------------------------------------
  | Atom    12: H
  |   Hirshfeld charge        :      0.08527616
  |   Free atom volume        :     10.44207651
  |   Hirshfeld volume        :      9.35230065
  |   Hirshfeld dipole vector :      0.04476712      -0.01185786       0.00839308
  |   Hirshfeld dipole moment :      0.04706536
  |   Hirshfeld second moments:      0.03575580       0.02724853      -0.00241554
  |                                  0.02724853       0.05849799      -0.00440392
  |                                 -0.00241554      -0.00440392       0.04325795
  ----------------------------------------------------------------------
  | Atom    13: H
  |   Hirshfeld charge        :      0.12388737
  |   Free atom volume        :     10.44207651
  |   Hirshfeld volume        :      8.71049649
  |   Hirshfeld dipole vector :      0.02973955       0.08103797      -0.03907772
  |   Hirshfeld dipole moment :      0.09475580
  |   Hirshfeld second moments:      0.07920669      -0.00462852       0.01146670
  |                                 -0.00462852       0.07575775      -0.00304210
  |                                  0.01146670      -0.00304210       0.05588561
  ----------------------------------------------------------------------


------------------------------------------------------------------------------
  Final output of selected total energy values:

  The following output summarizes some interesting total energy values
  at the end of a run (AFTER all relaxation, molecular dynamics, etc.).

  | Total energy of the DFT / Hartree-Fock s.c.f. calculation      :          -8346.252190255 eV
  | Final zero-broadening corrected energy (caution - metals only) :          -8346.255011203 eV
  | For reference only, the value of 1 Hartree used in FHI-aims is :             27.211384500 eV

  Before relying on these values, please be sure to understand exactly which
  total energy value is referred to by a given number. Different objects may
  all carry the same name 'total energy'. Definitions:

  Total energy of the DFT / Hartree-Fock s.c.f. calculation:
  | Note that this energy does not include ANY quantities calculated after the
  | s.c.f. cycle, in particular not ANY RPA, MP2, etc. many-body perturbation terms.

  Final zero-broadening corrected energy:
  | For metallic systems only, a broadening of the occupation numbers at the Fermi
  | level can be extrapolated back to zero broadening by an electron-gas inspired
  | formula. For all systems that are not real metals, this value can be
  | meaningless and should be avoided.

------------------------------------------------------------------------------

------------------------------------------------------------
          Leaving FHI-aims.
          Date     :  20150727, Time     :  125103.243

          Computational steps:
          | Number of self-consistency cycles          :           15

          Detailed time accounting                     :  max(cpu_time)    wall_clock(cpu1)
          | Total time                                 :       26.805 s          26.827 s
          | Preparation time                           :        0.174 s           0.676 s
          | Grid partitioning                          :        0.140 s           0.139 s
          | Preloading free-atom quantities on grid    :        0.014 s           0.014 s
          | Free-atom superposition energy             :        0.051 s           0.051 s
          | Total time for integrations                :       11.348 s          11.345 s
          | Total time for solution of K.-S. equations :        0.670 s           0.670 s
          | Total time for density & force components  :        9.006 s           9.007 s
          | Total time for mixing                      :        0.161 s           0.160 s
          | Total time for Hartree multipole update    :        0.065 s           0.067 s
          | Total time for Hartree multipole sum       :        4.448 s           4.450 s
          | Total time for total energy evaluation     :        0.003 s           0.002 s
          | Total time for scaled ZORA corrections     :        0.000 s           0.000 s
          | Total time for TS (2009) vdW correction    :        0.039 s           0.040 s

          Have a nice day.
------------------------------------------------------------
