  MPI-parallelism will be employed.
------------------------------------------------------------
          Invoking FHI-aims ...
          Version 081213
          Compiled on 2013/08/29 at 17:41:06 on host generoso.

          When using FHI-aims, please cite the following reference:

          Volker Blum, Ralf Gehrke, Felix Hanke, Paula Havu,
          Ville Havu, Xinguo Ren, Karsten Reuter, and Matthias Scheffler,
          'Ab Initio Molecular Simulations with Numeric Atom-Centered Orbitals: FHI-aims',
          Computer Physics Communications 180, 2175-2196 (2009)

          For any questions about FHI-aims, please visit the aimsclub website
          with its forums and wiki. Contributions to both the forums and the
          wiki are warmly encouraged - they are for you, and everyone is welcome there.

------------------------------------------------------------

  Date     :  20150727, Time     :  125130.901
  Time zero on CPU 1             :   0.459920000000000E-01  s.
  Internal wall clock time zero  :           207233490.901  s.

  Using        8 parallel tasks.
  Task        0 on host gen59 reporting.
  Task        1 on host gen59 reporting.
  Task        2 on host gen59 reporting.
  Task        3 on host gen59 reporting.
  Task        4 on host gen59 reporting.
  Task        5 on host gen59 reporting.
  Task        6 on host gen59 reporting.
  Task        7 on host gen59 reporting.

  Performing system and environment tests:
  | Environment variable OMP_NUM_THREADS correctly set to 1.
  | Checking for scalapack...
  | No scalapack compiled in.

  Obtaining array dimensions for all initial allocations:
  
  -----------------------------------------------------------------------
  Parsing control.in (first pass over file, find array dimensions only).
  The contents of control.in will be repeated verbatim below
  unless switched off by setting 'verbatim_writeout .false.' .
  in the first line of control.in .
  -----------------------------------------------------------------------
  
  #########################################################################################
  #
  #  Volker Blum, FHI 2008 : Test run input file control.in
  #
  #########################################################################################
  #
  #  Physical model
  #
    xc                 rpbe
    spin               none
    relativistic       atomic_zora scalar
    charge             0.
   vdw_correction_hirshfeld
  #
  #  SCF convergence
  #
    occupation_type    gaussian 0.01
    mixer              pulay
      n_max_pulay        10
      charge_mix_param   0.1
    sc_accuracy_rho    5E-5
    sc_accuracy_eev    5E-3
    sc_accuracy_etot   5E-6
    sc_iter_limit      3000
  #
  #  Eigenvalue solver
  #
    KS_method          lapack
      empty_states       8
      basis_threshold    0.e-5
  #
  #  Efficiency
  #
  #   all previous settings are now default, except stratmann still
  #   undecided. Continue to handle stratmann with care, if at all.
  #
  #  partition_type stratmann
    partition_type rho_r2
  #  hartree_partition_type stratmann
  #
  #  Oprions for large clusters (100's of atoms: memory saving / better scaling)
  #
  # for periodic systems:
  #
    density_update_method orbital
    packed_matrix_format none
  #  k_grid 6 6 6
  #  output k_eigenvalue 1
  #  distributed_spline_storage .true.
  #
  #  Relaxation
  #
  #  relax_geometry   bfgs 5.e-3
    sc_accuracy_forces 5.E-4
    final_forces_cleaned .true.
  #
  #  Output options
  #
  #  output mulliken
    output Hirshfeld
  #  output dipole
  
  #harmonic_length_scale 0.001
  
  ################################################################################
  #
  #  FHI-aims code project
  #  VB, Fritz-Haber Institut, 2007
  #
  #  Suggested "safe" defaults for H atom (to be pasted into control.in file)
  #  Basis constructed for a non-relativistic H2 molecule using the
  #  PW-LDA functional.
  #
  ################################################################################
    species        H
  #     global species definitions
      nucleus             1
      cut_pot             4.0  2.0  1.0
      cut_free_atom       finite 8.0
      logarithmic         0.00010000 100.00  1.0123
      basis_dep_cutoff    1d-4  # 1d-4 is safe default - please check 5d-4 if you wish!
      radial_base         24 7.0
      radial_multiplier   2
      angular_grids       specified
        division   0.2783  110
        division   0.3822  194
        division   0.5626  302
  #      division   0.5922  434
  #      division   0.6227  590
  #      division   0.7206  770
        outer_grid  302
      l_hartree           4
  ################################################################################
  #
  #  Definition of "minimal" basis
  #
  ################################################################################
  #     valence basis states
      valence      1  s   1.
  #     ion occupancy
      ion_occ      1  s   0.5
  ################################################################################
  #
  #  Suggested additional basis functions. For production calculations,
  #  uncomment them one after another (the most important basis functions are
  #  listed first).
  #
  ################################################################################
  #  "First tier" - improvements: -1014.90 meV to -62.69 meV
       hydro 2 s 2.1
       hydro 2 p 3.5
  #  "Second tier" - improvements: -12.89 meV to -1.83 meV
       hydro 1 s 0.85
       hydro 2 p 3.7
       hydro 2 s 1.2
       hydro 3 d 7
  #  "Third tier" - improvements: -0.25 meV to -0.12 meV
  #     hydro 4 f 11.2
  #     hydro 3 p 4.8
  #     hydro 4 d 9
  #     hydro 3 s 3.2
  
  ################################################################################
  #
  #  FHI-aims code project
  #  VB, Fritz-Haber Institut, 2007
  #
  #  Suggested "safe" defaults for O atom (to be pasted into control.in file)
  #  All values have been tested for a non-relativistic, non-spinpolarized O2
  #  molecule using the PW-LDA functional. Validity for PBE is expected.
  #
  #  Constructed for dimers: 1.0 A, 1.208 A, 1.5 A, 2.0 A, 3.0 A
  #
  ################################################################################
    species        O
  #     global species definitions
      nucleus             8
      mass                15.9994
      l_hartree           4
      cut_pot             4.0  2.0  1.0
      cut_free_atom       finite 8.0
      basis_dep_cutoff    1d-4  # 1d-4 is safe default - please check 5d-4 if you wish!
      logarithmic         0.00010000 100.00  1.0123
      radial_base         36 7.0
      radial_multiplier   2
       angular_grids specified
        division   0.4087  110
        division   0.5181  194
        division   0.6184  302
  #      division   0.7315  434
  #      division   0.7934  590
  #      division   0.9656  770
  #      division   1.4041  974
  #      outer_grid 974
        outer_grid 302
  ################################################################################
  #
  #  Definition of "minimal" basis
  #
  ################################################################################
  #     valence basis states
      valence      2  s   2.
      valence      2  p   4.
  #     ion occupancy
      ion_occ      2  s   1.
      ion_occ      2  p   3.
  ################################################################################
  #
  #  Suggested additional basis functions. For production calculations,
  #  uncomment them one after another (the most important basis functions are
  #  listed first).
  #
  ################################################################################
  #  "First tier" - improvements: -699.05 meV to -159.38 meV
       hydro 2 p 1.8
       hydro 3 d 7.6
       hydro 3 s 6.4
  #  "Second tier" - improvements: -49.91 meV to -5.39 meV
       hydro 4 f 11.6
       hydro 3 p 6.2
       hydro 3 d 5.6
       hydro 5 g 17.6
       hydro 1 s 0.75
  #  "Third tier" - improvements: -2.83 meV to -0.50 meV
  #     ionic 2 p auto
  #     hydro 4 f 10.8
  #     hydro 4 d 4.7
  #     hydro 2 s 6.8
  #  "Fourth tier" - improvements: -0.40 meV to -0.12 meV
  #     hydro 3 p 5
  #     hydro 3 s 3.3
  #     hydro 5 g 15.6
  #     hydro 4 f 17.6
  #     hydro 4 d 14
  # Further basis functions - -0.08 meV and below
  #     hydro 3 s 2.1
  #     hydro 4 d 11.6
  #     hydro 3 p 16
  #     hydro 2 s 17.2
  
  
  -----------------------------------------------------------------------
  Completed first pass over input file control.in .
  -----------------------------------------------------------------------
  
  
  -----------------------------------------------------------------------
  Parsing geometry.in (first pass over file, find array dimensions only).
  The contents of geometry.in will be repeated verbatim below
  unless switched off by setting 'verbatim_writeout .false.' .
  in the first line of geometry.in .
  -----------------------------------------------------------------------
  
  atom      -4.053030000      0.065001000     -1.525160000  O
  atom      -4.566710000      0.974813000     -1.912820000  H
  atom      -3.067820000      0.330172000     -1.477310000  H
  atom      -4.370360000     -0.049164000     -0.572274000  H
  atom      -5.293160000      2.192130000     -2.328800000  O
  atom      -4.829300000      2.988660000     -1.973850000  H
  atom      -5.428570000      2.328640000     -3.235170000  H
  atom      -1.975360000      2.858040000      0.453140000  O
  atom      -1.223550000      3.375850000      0.786238000  H
  atom      -2.537520000      2.567960000      1.156120000  H
  
  -----------------------------------------------------------------------
  Completed first pass over input file geometry.in .
  -----------------------------------------------------------------------
  
 
  Basic array size parameters: 
  | Number of species                 :        2
  | Number of atoms                   :       10
  | Max. basis fn. angular momentum   :        4
  | Max. atomic/ionic basis occupied n:        2
  | Max. number of basis fn. types    :        2
  | Max. radial fns per species/type  :        8
  | Max. logarithmic grid size        :     1301
  | Max. radial integration grid size :       73
  | Max. angular integration grid size:      302
  | Max. angular grid division number :        8
  | Radial grid for Hartree potential :     1301
  | Number of spin channels           :        1

------------------------------------------------------------
          Reading file control.in.
------------------------------------------------------------
  XC: Using RPBE gradient-corrected functionals.
  Spin treatment: No spin polarisation.
  Scalar relativistic treatment of kinetic energy: on-site free-atom approximation to ZORA.
  Charge =   0.000000E+00: Neutral system requested explicitly.
  Using non-empirical van der Waals correction (Hirshfeld partitioning):
  Occupation type: Gaussian broadening, width =   0.100000E-01 eV.
  Using pulay charge density mixing.
  Pulay mixing - number of memorized iterations:   10
  Charge density mixing - mixing parameter:     0.1000
  Convergence accuracy of self-consistent charge density: 0.5000E-04
  Convergence accuracy of sum of eigenvalues: 0.5000E-02
  Convergence accuracy of total energy: 0.5000E-05
  Maximum number of s.-c. iterations  :  3000
  Kohn-Sham eigenvalues and eigenfunctions calculated by lapack diagonalisation (D&C).
  Number of empty states per atom:        8
  Threshold for basis singularities: 0.0000E+00
  Partition function in integrals calculations: rho / r^2
 Using packed matrix format           0
  Convergence accuracy of forces: 0.5000E-03
  Cleaning forces before final output.
  Hirshfeld charge analysis will be performed.
 
  Reading configuration options for species H                   .
  | Found nuclear charge :   1.0000
  | Found cutoff potl. onset [A], width [A], scale factor :    4.00000    2.00000    1.00000
  | Found cutoff specification for free atom: Cutoff potential begins at    8.00000 A.
  | Found logarithmic grid data [bohr] : 0.1000E-03 0.1000E+03 0.1012E+01
  | Threshold for basis-dependent cutoff potential is   0.100000E-03
  | Found data for basic radial integration grid :    24 points, outermost radius =    7.000 A
  | Found multiplier for basic radial grid :   2
  | Found angular grid specification: user-specified.
  | Specified grid contains     4 separate shells.
  | Check grid settings after all constraints further below.
  | Found l_max for Hartree potential  :   4
  | Found free-atom valence shell :  1 s   1.000
  | No ionic wave fns used. Skipping ion_occ.
  | Found hydrogenic basis function :  2 s   2.100
  | Found hydrogenic basis function :  2 p   3.500
  | Found hydrogenic basis function :  1 s   0.850
  | Found hydrogenic basis function :  2 p   3.700
  | Found hydrogenic basis function :  2 s   1.200
  | Found hydrogenic basis function :  3 d   7.000
  Species H                   : Missing cutoff potential type.
  Defaulting to exp(1/x)/(1-x)^2 type cutoff potential.
  Species H : On-site basis accuracy parameter (for Gram-Schmidt orthonormalisation) not specified.
  Using default value basis_acc =  0.1000000E-03.
  Species H                   : Using default innermost maximum threshold i_radial=  2 for radial functions.
  Species H                   : Basic radial grid will be enhanced according to radial_multiplier =   2, to contain    49 grid points.
 
  Reading configuration options for species O                   .
  | Found nuclear charge :   8.0000
  | Found atomic mass :    15.9994000000000      amu
  | Found l_max for Hartree potential  :   4
  | Found cutoff potl. onset [A], width [A], scale factor :    4.00000    2.00000    1.00000
  | Found cutoff specification for free atom: Cutoff potential begins at    8.00000 A.
  | Threshold for basis-dependent cutoff potential is   0.100000E-03
  | Found logarithmic grid data [bohr] : 0.1000E-03 0.1000E+03 0.1012E+01
  | Found data for basic radial integration grid :    36 points, outermost radius =    7.000 A
  | Found multiplier for basic radial grid :   2
  | Found angular grid specification: user-specified.
  | Specified grid contains     4 separate shells.
  | Check grid settings after all constraints further below.
  | Found free-atom valence shell :  2 s   2.000
  | Found free-atom valence shell :  2 p   4.000
  | No ionic wave fns used. Skipping ion_occ.
  | No ionic wave fns used. Skipping ion_occ.
  | Found hydrogenic basis function :  2 p   1.800
  | Found hydrogenic basis function :  3 d   7.600
  | Found hydrogenic basis function :  3 s   6.400
  | Found hydrogenic basis function :  4 f  11.600
  | Found hydrogenic basis function :  3 p   6.200
  | Found hydrogenic basis function :  3 d   5.600
  | Found hydrogenic basis function :  5 g  17.600
  | Found hydrogenic basis function :  1 s   0.750
  Species O                   : Missing cutoff potential type.
  Defaulting to exp(1/x)/(1-x)^2 type cutoff potential.
  Species O : On-site basis accuracy parameter (for Gram-Schmidt orthonormalisation) not specified.
  Using default value basis_acc =  0.1000000E-03.
  Species O                   : Using default innermost maximum threshold i_radial=  2 for radial functions.
  Species O                   : Basic radial grid will be enhanced according to radial_multiplier =   2, to contain    73 grid points.
 
  Finished reading input file 'control.in'. Consistency checks are next.
 
  Target number of points in a grid batch is not set. Defaulting to  100
  Method for grid partitioning is not set. Defaulting to parallel hash+maxmin partitioning.
  Batch size limit is not set. Defaulting to    200
  By default, will store active basis functions for each batch.
  If in need of memory, prune_basis_once .false. can be used to disable this option.
  communication_type for Hartree potential was not specified.
  Defaulting to calc_hartree .
  Pulay mixer: Number of initial linear mixing iterations not set.
  Defaulting to    0 iterations.
  Work space size for distributed Hartree potential not set.
  Defaulting to   0.200000E+03 MB.
  Algorithm-dependent basis array size parameters:
  | n_max_pulay                         :       10
  Geometry relaxation not requested: no relaxation will be performed.
  Handling of forces: Unphysical translation and rotation will be removed from forces.
  No accuracy limit for integral partition fn. given. Defaulting to 0.1000E-14.
  No threshold value for u(r) in integrations given. Defaulting to 0.1000E-05.
  No accuracy for occupation numbers given. Defaulting to 0.1000E-07.
  No threshold value for occupation numbers given. Defaulting to 0.0000E+00.
  No accuracy for fermi level given. Defaulting to 0.1000E-19.
  Maximum # of iterations to find E_F not set. Defaulting to  200.
  Will not use alltoall communication since running on < 1024 CPUs.
  Partitioning for Hartree potential was not defined. Using partition_type for integrals.
  | Reporting present value of keyword multip_moments_threshold  :       0.10000000E-09
  | This value may affect high angular momentum components of the Hartree potential in periodic systems.
  No q(lm)/r^(l+1) cutoff set for long-range Hartree potential.
  | Using default value of  0.100000E-09 .
  | Verify using the multipole_threshold keyword.
  Defaulting to new monopole extrapolation.
  Density update method: Loop over occupied states selected for charge density update.
------------------------------------------------------------


------------------------------------------------------------
          Reading geometry description geometry.in.
------------------------------------------------------------
  Input structure read successfully.
  The structure contains       10 atoms,  and a total of         31.000 electrons.

  Input geometry:
  | No unit cell requested.
  | Atomic structure:
  |       Atom                x [A]            y [A]            z [A]
  |    1: Species O             -4.053030         0.065001        -1.525160
  |    2: Species H             -4.566710         0.974813        -1.912820
  |    3: Species H             -3.067820         0.330172        -1.477310
  |    4: Species H             -4.370360        -0.049164        -0.572274
  |    5: Species O             -5.293160         2.192130        -2.328800
  |    6: Species H             -4.829300         2.988660        -1.973850
  |    7: Species H             -5.428570         2.328640        -3.235170
  |    8: Species O             -1.975360         2.858040         0.453140
  |    9: Species H             -1.223550         3.375850         0.786238
  |   10: Species H             -2.537520         2.567960         1.156120
  |

  | The smallest distance between any two atoms is         0.92654057 AA.
  |
  | The first atom of this pair is atom number                      5 .
  | The second atom of this pair is atom number                     7 .

  Structure-dependent array size parameters: 
  | Maximum number of distinct radial functions  :       18
  | Maximum number of basis functions            :      222
  | Number of Kohn-Sham states (occupied + empty):       56
------------------------------------------------------------

------------------------------------------------------------
          Preparing all fixed parts of the calculation.
------------------------------------------------------------
  Determining machine precision:
    2.225073858507201E-308
  Setting up grids for atomic and cluster calculations.

  Creating wave function, potential, and density for free atoms.

  Species: H

  List of occupied orbitals and eigenvalues:
    n    l              occ      energy [Ha]    energy [eV]
    1    0           1.0000        -0.241408        -6.5691


  Species: O

  List of occupied orbitals and eigenvalues:
    n    l              occ      energy [Ha]    energy [eV]
    1    0           2.0000       -18.944147      -515.4965
    2    0           2.0000        -0.883529       -24.0421
    2    1           4.0000        -0.330176        -8.9845

  Creating fixed part of basis set: Ionic, confined, hydrogenic.
 
  H                    hydrogenic:
 
  List of hydrogenic basis orbitals: 
    n    l      effective z      eigenvalue [eV]  inner max. [A]     outer max. [A]     outer radius [A]   
    2    0         2.100000       -14.9965           0.193241           1.317192           5.372934
    2    1         3.500000       -41.6672           0.602363           0.602363           4.056010
    1    0         0.850000        -9.8292           0.624864           0.624864           5.372934
    2    1         3.700000       -46.5653           0.573616           0.573616           3.909951
    2    0         1.200000        -4.5995           0.334977           2.228160           5.505921
    3    2         7.000000       -74.0753           0.680692           0.680692           3.769152
 
 
  O                    hydrogenic:
 
  List of hydrogenic basis orbitals: 
    n    l      effective z      eigenvalue [eV]  inner max. [A]     outer max. [A]     outer radius [A]   
    2    1         1.800000       -11.0118           1.178546           1.178546           5.432516
    3    2         7.600000       -87.3182           0.624117           0.624117           3.541422
    3    0         6.400000       -61.9209           0.061166           1.081887           4.306510
    4    3        11.600000      -114.4238           0.731621           0.731621           3.584982
    3    1         6.200000       -58.1113           0.255677           1.030255           4.306510
    3    2         5.600000       -47.4081           0.847222           0.847222           4.413102
    5    4        17.600000      -168.5799           0.749730           0.749730           3.372413
    1    0         0.750000        -7.6499           0.705275           0.705275           5.366508
 

  Adding cutoff potential to free-atom effective potential.
  Creating atomic-like basis functions for current effective potential.

  Species H                   :

  List of atomic basis orbitals and eigenvalues:
    n    l      energy [Ha]    energy [eV]    outer radius [A]
    1    0        -0.241374        -6.5681       5.372934


  Species O                   :

  List of atomic basis orbitals and eigenvalues:
    n    l      energy [Ha]    energy [eV]    outer radius [A]
    1    0       -18.944147      -515.4965       1.415745
    2    0        -0.883529       -24.0421       5.048305
    2    1        -0.330173        -8.9845       5.301302

  Assembling full basis from fixed parts.
  | Species H :   atomic orbital   1 s accepted.
  | Species H :    hydro orbital   2 s accepted.
  | Species H :    hydro orbital   1 s accepted.
  | Species H :    hydro orbital   2 s accepted.
  | Species H :    hydro orbital   2 p accepted.
  | Species H :    hydro orbital   2 p accepted.
  | Species H :    hydro orbital   3 d accepted.
  | Species O :   atomic orbital   1 s accepted.
  | Species O :    hydro orbital   3 s accepted.
  | Species O :   atomic orbital   2 s accepted.
  | Species O :    hydro orbital   1 s accepted.
  | Species O :    hydro orbital   3 p accepted.
  | Species O :   atomic orbital   2 p accepted.
  | Species O :    hydro orbital   2 p accepted.
  | Species O :    hydro orbital   3 d accepted.
  | Species O :    hydro orbital   3 d accepted.
  | Species O :    hydro orbital   4 f accepted.
  | Species O :    hydro orbital   5 g accepted.
 
  Basis size parameters after reduction:
  | Total number of radial functions:       18
  | Total number of basis functions :      222
 
  Testing on-site integration grid accuracy.
  |  Species  Function  <phi|h_atom|phi> (log., in eV)  <phi|h_atom|phi> (rad., in eV)
           1        1                 -6.5683835025                 -6.5684759159
           1        2                 13.3711789951                 13.3708738703
           1        3                 23.6590910787                 23.6532055418
           1        4                 16.2963827186                 16.1870710655 ***
           1        5                 28.7627214838                 28.7627215090
           1        6                 59.5965249172                 59.5965950857
           1        7                 60.2220506392                 60.2220503827
           2        8               -515.4964576505               -515.4964530710
           2        9                 15.3030791347                 15.3030722972
           2       10                -21.7296094581                -21.7296135470
           2       11                 14.2969371730                 14.2969701621
           2       12                 21.0679693190                 21.0679697493
           2       13                 -2.3833606469                 -2.3833613176
           2       14                 13.7067136422                 13.7066766629
           2       15                 45.8013116808                 45.8013116965
           2       16                 52.2309815402                 52.2309831494
           2       17                 85.4120732416                 85.4120732763
           2       18                142.1019167745                142.1019167817
 * Note: Onsite integrals marked "***" above are less accurate than
 * onsite_accuracy_threshold =    0.03000 eV. Usually, this is harmless.
 * When in doubt, tighten the "radial" and/or "radial_multiplier" flags to check.

  Preparing densities etc. for the partition functions (integrals / Hartree potential).

  Preparations completed.
  max(cpu_time)          :      0.173 s.
  Wall clock time (cpu1) :      0.485 s.
------------------------------------------------------------

------------------------------------------------------------
          Begin self-consistency loop: Initialization.

          Date     :  20150727, Time     :  125131.426
------------------------------------------------------------

  Initializing index lists of integration centers etc. from given atomic structure:
  | Number of centers in hartree potential         :        10
  | Number of centers in hartree multipole         :        10
  | Number of centers in electron density summation:        10
  | Number of centers in basis integrals           :        10
  | Number of centers in integrals                 :        10
  Partitioning the integration grid into batches with parallel hashing+maxmin method.
  | Number of batches:     1400
  | Maximal batch size:     157
  | Minimal batch size:      51
  | Average batch size:      92.586
  | Standard deviation of batch sizes:      27.020

  Integration load balanced across     8 MPI tasks.
  Work distribution over tasks is as follows:
  Task     0 has      16241 integration points.
  Task     1 has      16210 integration points.
  Task     2 has      16241 integration points.
  Task     3 has      16128 integration points.
  Task     4 has      16167 integration points.
  Task     5 has      16249 integration points.
  Task     6 has      16174 integration points.
  Task     7 has      16210 integration points.
  Initializing partition tables, free-atom densities, potentials, etc. across the integration grid (initialize_grid_storage).
  | Net number of integration points:   129620
  | of which are non-zero points    :   129122
  Obtaining max. number of non-zero basis functions in each batch (get_n_compute_maxes).
  | Maximal number of non-zero basis functions:      221 in task     0
  | Maximal number of non-zero basis functions:      220 in task     1
  | Maximal number of non-zero basis functions:      221 in task     2
  | Maximal number of non-zero basis functions:      221 in task     3
  | Maximal number of non-zero basis functions:      220 in task     4
  | Maximal number of non-zero basis functions:      221 in task     5
  | Maximal number of non-zero basis functions:      221 in task     6
  | Maximal number of non-zero basis functions:      220 in task     7
  Integrating Hamiltonian matrix: batch-based integration.
  Time summed over all CPUs for integration: real work        2.878 s, elapsed        2.951 s
  Integrating overlap matrix.
  Time summed over all CPUs for integration: real work        1.475 s, elapsed        1.507 s

  Updating Kohn-Sham eigenvalues, eigenvectors, occupation numbers, and Fermi level.
  Solving generalized eigenproblem
  Updating Kohn-Sham eigenvalues and eigenfunctions.
  Transforming overlap matrix and checking for singularities.
  Overlap matrix is nonsingular:
  | Lowest eigenvalue:  0.323405E-03
  Solving real generalised eigenvalue problem by standard LAPACK (fast)
  Determining occupation numbers for Kohn-Sham eigenstates.
  | Chemical potential (Fermi level) in eV                 : -.26644120E+01
  | Error in electron count due to remaining E_F inaccuracy: 0.00000000E+00
  | Maximum occupation number of highest empty state:  0.00E+00

  Writing Kohn-Sham eigenvalues.

  State    Occupation    Eigenvalue [Ha]    Eigenvalue [eV]
      1       2.00000         -19.064884         -518.78188
      2       2.00000         -19.064848         -518.78091
      3       2.00000         -19.054450         -518.49796
      4       2.00000          -1.127474          -30.68012
      5       2.00000          -1.112494          -30.27250
      6       2.00000          -1.103341          -30.02344
      7       2.00000          -0.650729          -17.70724
      8       2.00000          -0.646487          -17.59180
      9       2.00000          -0.627452          -17.07385
     10       2.00000          -0.619843          -16.86679
     11       2.00000          -0.524821          -14.28111
     12       2.00000          -0.501167          -13.63745
     13       2.00000          -0.487124          -13.25531
     14       2.00000          -0.452491          -12.31291
     15       2.00000          -0.437898          -11.91581
     16       1.00000          -0.097915           -2.66441
     17       0.00000          -0.059467           -1.61819
     18       0.00000          -0.054890           -1.49364
     19       0.00000          -0.022338           -0.60786
     20       0.00000          -0.004767           -0.12973
     21       0.00000           0.006078            0.16540
     22       0.00000           0.049273            1.34080
     23       0.00000           0.072705            1.97839
     24       0.00000           0.075723            2.06053
     25       0.00000           0.084918            2.31075
     26       0.00000           0.102271            2.78293
     27       0.00000           0.112600            3.06400
     28       0.00000           0.116237            3.16298
     29       0.00000           0.123372            3.35712
     30       0.00000           0.128079            3.48521
     31       0.00000           0.145140            3.94946
     32       0.00000           0.158278            4.30695
     33       0.00000           0.188440            5.12771
     34       0.00000           0.215989            5.87735
     35       0.00000           0.231668            6.30402
     36       0.00000           0.235646            6.41224
     37       0.00000           0.268165            7.29714
     38       0.00000           0.299133            8.13983
     39       0.00000           0.305830            8.32206
     40       0.00000           0.339370            9.23472
     41       0.00000           0.363342            9.88703
     42       0.00000           0.376233           10.23782
     43       0.00000           0.388894           10.58235
     44       0.00000           0.395708           10.76777
     45       0.00000           0.409411           11.14063
     46       0.00000           0.424173           11.54233
     47       0.00000           0.443606           12.07112
     48       0.00000           0.476837           12.97540
     49       0.00000           0.486068           13.22658
     50       0.00000           0.516159           14.04539
     51       0.00000           0.540943           14.71982
     52       0.00000           0.560932           15.26374
     53       0.00000           0.621938           16.92379
     54       0.00000           0.630442           17.15520
     55       0.00000           0.721330           19.62838
     56       0.00000           0.735692           20.01919

  Highest occupied state (VBM) at     -2.66441200 eV
  | Occupation number:      1.00000000

  Lowest unoccupied state (CBM) at    -2.66441200 eV
  | Occupation number:      1.00000000

  Overall HOMO-LUMO gap:      0.00000000 eV.
  Calculating total energy contributions from superposition of free atom densities.

  Total energy components:
  | Sum of eigenvalues            :        -131.04891954 Ha       -3566.02253780 eV
  | XC energy correction          :         -27.70380475 Ha        -753.85888328 eV
  | XC potential correction       :          35.40606725 Ha         963.44810965 eV
  | Free-atom electrostatic energy:        -106.95755852 Ha       -2910.46324998 eV
  | Hartree energy correction     :           0.00000000 Ha           0.00000000 eV
  | van der Waals energy corr.    :           0.00000000 Ha           0.00000000 eV
  | Entropy correction            :          -0.00010367 Ha          -0.00282095 eV
  | ---------------------------
  | Total energy                  :        -230.30421555 Ha       -6266.89656141 eV
  | Total energy, T -> 0          :        -230.30431922 Ha       -6266.89938236 eV  <-- do not rely on this value for anything but (periodic) metals
  | Electronic free energy        :        -230.30442289 Ha       -6266.90220331 eV

  Derived energy quantities:
  | Kinetic energy                :         228.17438938 Ha        6208.94104260 eV
  | Electrostatic energy          :        -430.77480018 Ha      -11721.97872072 eV
  | Energy correction for multipole
  | error in Hartree potential    :           0.00000000 Ha           0.00000000 eV
  | Sum of eigenvalues per atom                           :        -356.60225378 eV
  | Total energy (T->0) per atom                          :        -626.68993824 eV  <-- do not rely on this value for anything but (periodic) metals
  | Electronic free energy per atom                       :        -626.69022033 eV
  Initialize hartree_potential_storage
  Max. number of atoms included in rho_multipole:           10

  End scf initialization - timings             :  max(cpu_time)    wall_clock(cpu1)
  | Time for scf. initialization               :        0.837 s           0.837 s
  | Boundary condition initialization          :        0.000 s           0.000 s
  | Integration                                :        0.559 s           0.559 s
  | Solution of K.-S. eqns.                    :        0.074 s           0.074 s
  | Grid partitioning                          :        0.096 s           0.095 s
  | Preloading free-atom quantities on grid    :        0.013 s           0.014 s
  | Free-atom superposition energy             :        0.034 s           0.033 s
  | Total energy evaluation                    :        0.000 s           0.001 s
------------------------------------------------------------

------------------------------------------------------------
          Begin self-consistency iteration #    1

  Date     :  20150727, Time     :  125132.263
------------------------------------------------------------
  Evaluating new KS density.
  Integration grid: deviation in total charge (<rho> - N_e) =   7.105427E-15
  Pulay mixing of updated and previous charge densities.

  Evaluating partitioned Hartree potential by multipole expansion.
  | Analytical far-field extrapolation by fixed multipoles:
  | Hartree multipole sum: apparent total charge =  -0.684884E-06
  Summing up the Hartree potential.
  Time summed over all CPUs for potential: real work        1.146 s, elapsed        1.153 s
  | RMS charge density error from multipole expansion :   0.134698E-02

  Integrating Hamiltonian matrix: batch-based integration.
  Time summed over all CPUs for integration: real work        2.869 s, elapsed        2.939 s

  Updating Kohn-Sham eigenvalues, eigenvectors, occupation numbers, and Fermi level.
  Solving generalized eigenproblem
  Updating Kohn-Sham eigenvalues and eigenfunctions.
  Solving real generalised eigenvalue problem by standard LAPACK (fast)
  Determining occupation numbers for Kohn-Sham eigenstates.
  | Chemical potential (Fermi level) in eV                 : -.24945725E+01
  | Error in electron count due to remaining E_F inaccuracy: 0.48704152E-10
  | Maximum occupation number of highest empty state:  0.00E+00

  Writing Kohn-Sham eigenvalues.

  State    Occupation    Eigenvalue [Ha]    Eigenvalue [eV]
      1       2.00000         -19.012134         -517.34648
      2       2.00000         -18.995811         -516.90233
      3       2.00000         -18.971306         -516.23551
      4       2.00000          -1.100215          -29.93837
      5       2.00000          -1.082971          -29.46914
      6       2.00000          -1.061638          -28.88863
      7       2.00000          -0.622890          -16.94971
      8       2.00000          -0.610429          -16.61063
      9       2.00000          -0.606938          -16.51563
     10       2.00000          -0.597603          -16.26161
     11       2.00000          -0.495261          -13.47674
     12       2.00000          -0.460695          -12.53614
     13       2.00000          -0.458344          -12.47218
     14       2.00000          -0.419425          -11.41313
     15       2.00000          -0.394530          -10.73569
     16       1.00000          -0.091674           -2.49457
     17       0.00000          -0.052360           -1.42479
     18       0.00000          -0.048691           -1.32495
     19       0.00000          -0.017167           -0.46713
     20       0.00000           0.001198            0.03260
     21       0.00000           0.012687            0.34524
     22       0.00000           0.054196            1.47475
     23       0.00000           0.077466            2.10796
     24       0.00000           0.081017            2.20459
     25       0.00000           0.093967            2.55696
     26       0.00000           0.110564            3.00861
     27       0.00000           0.119617            3.25493
     28       0.00000           0.122029            3.32059
     29       0.00000           0.130642            3.55495
     30       0.00000           0.135129            3.67704
     31       0.00000           0.152594            4.15228
     32       0.00000           0.164274            4.47012
     33       0.00000           0.195533            5.32072
     34       0.00000           0.220421            5.99796
     35       0.00000           0.237666            6.46722
     36       0.00000           0.241054            6.55942
     37       0.00000           0.273738            7.44878
     38       0.00000           0.304153            8.27641
     39       0.00000           0.311516            8.47679
     40       0.00000           0.346596            9.43136
     41       0.00000           0.368507           10.02759
     42       0.00000           0.382924           10.41990
     43       0.00000           0.394539           10.73595
     44       0.00000           0.402897           10.96339
     45       0.00000           0.415686           11.31139
     46       0.00000           0.433114           11.78563
     47       0.00000           0.454306           12.36230
     48       0.00000           0.483185           13.14812
     49       0.00000           0.495940           13.49521
     50       0.00000           0.523681           14.25008
     51       0.00000           0.548888           14.93601
     52       0.00000           0.571945           15.56341
     53       0.00000           0.629089           17.11838
     54       0.00000           0.639381           17.39845
     55       0.00000           0.732220           19.92472
     56       0.00000           0.742877           20.21470

  Highest occupied state (VBM) at     -2.49457246 eV
  | Occupation number:      1.00000000

  Lowest unoccupied state (CBM) at    -1.42478907 eV
  | Occupation number:      0.00000000

  Overall HOMO-LUMO gap:      1.06978339 eV.

  Total energy components:
  | Sum of eigenvalues            :        -129.87205427 Ha       -3533.99840462 eV
  | XC energy correction          :         -27.83362961 Ha        -757.39159737 eV
  | XC potential correction       :          35.57569908 Ha         968.06402659 eV
  | Free-atom electrostatic energy:        -106.95755852 Ha       -2910.46324998 eV
  | Hartree energy correction     :          -1.14521066 Ha         -31.16276751 eV
  | van der Waals energy corr.    :           0.00000000 Ha           0.00000000 eV
  | Entropy correction            :          -0.00010367 Ha          -0.00282095 eV
  | ---------------------------
  | Total energy                  :        -230.23275397 Ha       -6264.95199290 eV
  | Total energy, T -> 0          :        -230.23285764 Ha       -6264.95481385 eV  <-- do not rely on this value for anything but (periodic) metals
  | Electronic free energy        :        -230.23296131 Ha       -6264.95763479 eV

  Derived energy quantities:
  | Kinetic energy                :         228.98431994 Ha        6230.98037427 eV
  | Electrostatic energy          :        -431.38344430 Ha      -11738.54076979 eV
  | Energy correction for multipole
  | error in Hartree potential    :           0.00036499 Ha           0.00993177 eV
  | Sum of eigenvalues per atom                           :        -353.39984046 eV
  | Total energy (T->0) per atom                          :        -626.49548138 eV  <-- do not rely on this value for anything but (periodic) metals
  | Electronic free energy per atom                       :        -626.49576348 eV

  Self-consistency convergence accuracy:
  | Change of charge density      : 0.4944E+00
  | Change of sum of eigenvalues  : 0.3202E+02 eV
  | Change of total energy        : 0.1945E+01 eV

  End self-consistency iteration #     1       :  max(cpu_time)    wall_clock(cpu1)
  | Time for this iteration                    :        0.784 s           0.783 s
  | Charge density update                      :        0.245 s           0.244 s
  | Density mixing                             :        0.002 s           0.003 s
  | Hartree multipole update                   :        0.004 s           0.004 s
  | Hartree multipole summation                :        0.145 s           0.145 s
  | Integration                                :        0.368 s           0.368 s
  | Solution of K.-S. eqns.                    :        0.019 s           0.018 s
  | Total energy evaluation                    :        0.000 s           0.000 s
------------------------------------------------------------

------------------------------------------------------------
          Begin self-consistency iteration #    2

  Date     :  20150727, Time     :  125133.046
------------------------------------------------------------
  Evaluating new KS density.
  Integration grid: deviation in total charge (<rho> - N_e) =   4.870415E-11
  Pulay mixing of updated and previous charge densities.

  Evaluating partitioned Hartree potential by multipole expansion.
  | Analytical far-field extrapolation by fixed multipoles:
  | Hartree multipole sum: apparent total charge =  -0.315034E-05
  Summing up the Hartree potential.
  Time summed over all CPUs for potential: real work        1.145 s, elapsed        1.153 s
  | RMS charge density error from multipole expansion :   0.552118E-02

  Integrating Hamiltonian matrix: batch-based integration.
  Time summed over all CPUs for integration: real work        2.860 s, elapsed        2.934 s

  Updating Kohn-Sham eigenvalues, eigenvectors, occupation numbers, and Fermi level.
  Solving generalized eigenproblem
  Updating Kohn-Sham eigenvalues and eigenfunctions.
  Solving real generalised eigenvalue problem by standard LAPACK (fast)
  Determining occupation numbers for Kohn-Sham eigenstates.
  | Chemical potential (Fermi level) in eV                 : -.20871125E+01
  | Error in electron count due to remaining E_F inaccuracy: -.20463631E-11
  | Maximum occupation number of highest empty state:  0.00E+00

  Highest occupied state (VBM) at     -7.83724673 eV
  | Occupation number:      2.00000000

  Lowest unoccupied state (CBM) at    -2.08711246 eV
  | Occupation number:      1.00000000

  Overall HOMO-LUMO gap:      5.75013427 eV.

  Total energy components:
  | Sum of eigenvalues            :        -127.02228476 Ha       -3456.45223060 eV
  | XC energy correction          :         -28.16500312 Ha        -766.40872942 eV
  | XC potential correction       :          36.00761889 Ha         979.81716256 eV
  | Free-atom electrostatic energy:        -106.95755852 Ha       -2910.46324998 eV
  | Hartree energy correction     :          -4.01381392 Ha        -109.22143379 eV
  | van der Waals energy corr.    :           0.00000000 Ha           0.00000000 eV
  | Entropy correction            :          -0.00010367 Ha          -0.00282095 eV
  | ---------------------------
  | Total energy                  :        -230.15104142 Ha       -6262.72848124 eV
  | Total energy, T -> 0          :        -230.15114509 Ha       -6262.73130219 eV  <-- do not rely on this value for anything but (periodic) metals
  | Electronic free energy        :        -230.15124876 Ha       -6262.73412314 eV

  Derived energy quantities:
  | Kinetic energy                :         230.70451443 Ha        6277.78924793 eV
  | Electrostatic energy          :        -432.69055273 Ha      -11774.10899975 eV
  | Energy correction for multipole
  | error in Hartree potential    :           0.00098015 Ha           0.02667115 eV
  | Sum of eigenvalues per atom                           :        -345.64522306 eV
  | Total energy (T->0) per atom                          :        -626.27313022 eV  <-- do not rely on this value for anything but (periodic) metals
  | Electronic free energy per atom                       :        -626.27341231 eV

  Self-consistency convergence accuracy:
  | Change of charge density      : 0.3769E+00
  | Change of sum of eigenvalues  : 0.7755E+02 eV
  | Change of total energy        : 0.2224E+01 eV

  End self-consistency iteration #     2       :  max(cpu_time)    wall_clock(cpu1)
  | Time for this iteration                    :        0.781 s           0.781 s
  | Charge density update                      :        0.242 s           0.243 s
  | Density mixing                             :        0.004 s           0.003 s
  | Hartree multipole update                   :        0.004 s           0.004 s
  | Hartree multipole summation                :        0.144 s           0.145 s
  | Integration                                :        0.368 s           0.367 s
  | Solution of K.-S. eqns.                    :        0.018 s           0.019 s
  | Total energy evaluation                    :        0.000 s           0.000 s
------------------------------------------------------------

------------------------------------------------------------
          Begin self-consistency iteration #    3

  Date     :  20150727, Time     :  125133.827
------------------------------------------------------------
  Evaluating new KS density.
  Integration grid: deviation in total charge (<rho> - N_e) =  -2.042810E-12
  Pulay mixing of updated and previous charge densities.

  Evaluating partitioned Hartree potential by multipole expansion.
  | Analytical far-field extrapolation by fixed multipoles:
  | Hartree multipole sum: apparent total charge =  -0.406208E-05
  Summing up the Hartree potential.
  Time summed over all CPUs for potential: real work        1.145 s, elapsed        1.153 s
  | RMS charge density error from multipole expansion :   0.110997E-01

  Integrating Hamiltonian matrix: batch-based integration.
  Time summed over all CPUs for integration: real work        2.859 s, elapsed        2.934 s

  Updating Kohn-Sham eigenvalues, eigenvectors, occupation numbers, and Fermi level.
  Solving generalized eigenproblem
  Updating Kohn-Sham eigenvalues and eigenfunctions.
  Solving real generalised eigenvalue problem by standard LAPACK (fast)
  Determining occupation numbers for Kohn-Sham eigenstates.
  | Chemical potential (Fermi level) in eV                 : -.21157544E+01
  | Error in electron count due to remaining E_F inaccuracy: 0.00000000E+00
  | Maximum occupation number of highest empty state:  0.00E+00

  Highest occupied state (VBM) at     -2.11575437 eV
  | Occupation number:      1.00000000

  Lowest unoccupied state (CBM) at    -2.11575437 eV
  | Occupation number:      1.00000000

  Overall HOMO-LUMO gap:      0.00000000 eV.

  Total energy components:
  | Sum of eigenvalues            :        -127.35969499 Ha       -3465.63363009 eV
  | XC energy correction          :         -28.14284490 Ha        -765.80577356 eV
  | XC potential correction       :          35.97303998 Ha         978.87622251 eV
  | Free-atom electrostatic energy:        -106.95755852 Ha       -2910.46324998 eV
  | Hartree energy correction     :          -3.66373398 Ha         -99.69527394 eV
  | van der Waals energy corr.    :           0.00000000 Ha           0.00000000 eV
  | Entropy correction            :          -0.00010367 Ha          -0.00282095 eV
  | ---------------------------
  | Total energy                  :        -230.15079240 Ha       -6262.72170506 eV
  | Total energy, T -> 0          :        -230.15089607 Ha       -6262.72452601 eV  <-- do not rely on this value for anything but (periodic) metals
  | Electronic free energy        :        -230.15099974 Ha       -6262.72734696 eV

  Derived energy quantities:
  | Kinetic energy                :         229.59636158 Ha        6247.63487467 eV
  | Electrostatic energy          :        -431.60430908 Ha      -11744.55080617 eV
  | Energy correction for multipole
  | error in Hartree potential    :          -0.00059432 Ha          -0.01617217 eV
  | Sum of eigenvalues per atom                           :        -346.56336301 eV
  | Total energy (T->0) per atom                          :        -626.27245260 eV  <-- do not rely on this value for anything but (periodic) metals
  | Electronic free energy per atom                       :        -626.27273470 eV

  Self-consistency convergence accuracy:
  | Change of charge density      : 0.1825E+00
  | Change of sum of eigenvalues  : -.9181E+01 eV
  | Change of total energy        : 0.6776E-02 eV

  End self-consistency iteration #     3       :  max(cpu_time)    wall_clock(cpu1)
  | Time for this iteration                    :        0.780 s           0.780 s
  | Charge density update                      :        0.240 s           0.240 s
  | Density mixing                             :        0.005 s           0.004 s
  | Hartree multipole update                   :        0.004 s           0.004 s
  | Hartree multipole summation                :        0.144 s           0.145 s
  | Integration                                :        0.368 s           0.367 s
  | Solution of K.-S. eqns.                    :        0.018 s           0.019 s
  | Total energy evaluation                    :        0.000 s           0.000 s
------------------------------------------------------------

------------------------------------------------------------
          Begin self-consistency iteration #    4

  Date     :  20150727, Time     :  125134.607
------------------------------------------------------------
  Evaluating new KS density.
  Integration grid: deviation in total charge (<rho> - N_e) =  -3.552714E-15
  Pulay mixing of updated and previous charge densities.

  Evaluating partitioned Hartree potential by multipole expansion.
  | Analytical far-field extrapolation by fixed multipoles:
  | Hartree multipole sum: apparent total charge =  -0.500064E-05
  Summing up the Hartree potential.
  Time summed over all CPUs for potential: real work        1.145 s, elapsed        1.152 s
  | RMS charge density error from multipole expansion :   0.142872E-01

  Integrating Hamiltonian matrix: batch-based integration.
  Time summed over all CPUs for integration: real work        2.848 s, elapsed        2.909 s

  Updating Kohn-Sham eigenvalues, eigenvectors, occupation numbers, and Fermi level.
  Solving generalized eigenproblem
  Updating Kohn-Sham eigenvalues and eigenfunctions.
  Solving real generalised eigenvalue problem by standard LAPACK (fast)
  Determining occupation numbers for Kohn-Sham eigenstates.
  | Chemical potential (Fermi level) in eV                 : -.20234364E+01
  | Error in electron count due to remaining E_F inaccuracy: 0.17559998E-09
  | Maximum occupation number of highest empty state:  0.00E+00

  Highest occupied state (VBM) at     -2.02343637 eV
  | Occupation number:      1.00000000

  Lowest unoccupied state (CBM) at    -0.98557609 eV
  | Occupation number:      0.00000000

  Overall HOMO-LUMO gap:      1.03786027 eV.

  Total energy components:
  | Sum of eigenvalues            :        -126.66736877 Ha       -3446.79447521 eV
  | XC energy correction          :         -28.24057308 Ha        -768.46509267 eV
  | XC potential correction       :          36.09869450 Ha         982.29545586 eV
  | Free-atom electrostatic energy:        -106.95755852 Ha       -2910.46324998 eV
  | Hartree energy correction     :          -4.38044072 Ha        -119.19785683 eV
  | van der Waals energy corr.    :           0.00000000 Ha           0.00000000 eV
  | Entropy correction            :          -0.00010367 Ha          -0.00282095 eV
  | ---------------------------
  | Total energy                  :        -230.14724660 Ha       -6262.62521884 eV
  | Total energy, T -> 0          :        -230.14735027 Ha       -6262.62803978 eV  <-- do not rely on this value for anything but (periodic) metals
  | Electronic free energy        :        -230.14745394 Ha       -6262.63086073 eV

  Derived energy quantities:
  | Kinetic energy                :         229.67976801 Ha        6249.90447923 eV
  | Electrostatic energy          :        -431.58644153 Ha      -11744.06460540 eV
  | Energy correction for multipole
  | error in Hartree potential    :          -0.00100644 Ha          -0.02738657 eV
  | Sum of eigenvalues per atom                           :        -344.67944752 eV
  | Total energy (T->0) per atom                          :        -626.26280398 eV  <-- do not rely on this value for anything but (periodic) metals
  | Electronic free energy per atom                       :        -626.26308607 eV

  Self-consistency convergence accuracy:
  | Change of charge density      : 0.8680E-01
  | Change of sum of eigenvalues  : 0.1884E+02 eV
  | Change of total energy        : 0.9649E-01 eV

  End self-consistency iteration #     4       :  max(cpu_time)    wall_clock(cpu1)
  | Time for this iteration                    :        0.778 s           0.778 s
  | Charge density update                      :        0.240 s           0.241 s
  | Density mixing                             :        0.006 s           0.005 s
  | Hartree multipole update                   :        0.004 s           0.004 s
  | Hartree multipole summation                :        0.144 s           0.144 s
  | Integration                                :        0.365 s           0.364 s
  | Solution of K.-S. eqns.                    :        0.018 s           0.018 s
  | Total energy evaluation                    :        0.000 s           0.000 s
------------------------------------------------------------

------------------------------------------------------------
          Begin self-consistency iteration #    5

  Date     :  20150727, Time     :  125135.385
------------------------------------------------------------
  Evaluating new KS density.
  Integration grid: deviation in total charge (<rho> - N_e) =   1.756035E-10
  Pulay mixing of updated and previous charge densities.

  Evaluating partitioned Hartree potential by multipole expansion.
  | Analytical far-field extrapolation by fixed multipoles:
  | Hartree multipole sum: apparent total charge =  -0.504804E-05
  Summing up the Hartree potential.
  Time summed over all CPUs for potential: real work        1.145 s, elapsed        1.152 s
  | RMS charge density error from multipole expansion :   0.143442E-01

  Integrating Hamiltonian matrix: batch-based integration.
  Time summed over all CPUs for integration: real work        2.848 s, elapsed        2.909 s

  Updating Kohn-Sham eigenvalues, eigenvectors, occupation numbers, and Fermi level.
  Solving generalized eigenproblem
  Updating Kohn-Sham eigenvalues and eigenfunctions.
  Solving real generalised eigenvalue problem by standard LAPACK (fast)
  Determining occupation numbers for Kohn-Sham eigenstates.
  | Chemical potential (Fermi level) in eV                 : -.20237938E+01
  | Error in electron count due to remaining E_F inaccuracy: 0.76402173E-09
  | Maximum occupation number of highest empty state:  0.00E+00

  Highest occupied state (VBM) at     -2.02379383 eV
  | Occupation number:      1.00000000

  Lowest unoccupied state (CBM) at    -0.98479047 eV
  | Occupation number:      0.00000000

  Overall HOMO-LUMO gap:      1.03900336 eV.

  Total energy components:
  | Sum of eigenvalues            :        -126.67613414 Ha       -3447.03299297 eV
  | XC energy correction          :         -28.23927154 Ha        -768.42967587 eV
  | XC potential correction       :          36.09683847 Ha         982.24495074 eV
  | Free-atom electrostatic energy:        -106.95755852 Ha       -2910.46324998 eV
  | Hartree energy correction     :          -4.37106295 Ha        -118.94267463 eV
  | van der Waals energy corr.    :           0.00000000 Ha           0.00000000 eV
  | Entropy correction            :          -0.00010367 Ha          -0.00282095 eV
  | ---------------------------
  | Total energy                  :        -230.14718868 Ha       -6262.62364271 eV
  | Total energy, T -> 0          :        -230.14729235 Ha       -6262.62646366 eV  <-- do not rely on this value for anything but (periodic) metals
  | Electronic free energy        :        -230.14739601 Ha       -6262.62928460 eV

  Derived energy quantities:
  | Kinetic energy                :         229.71059179 Ha        6250.74323692 eV
  | Electrostatic energy          :        -431.61850893 Ha      -11744.93720376 eV
  | Energy correction for multipole
  | error in Hartree potential    :          -0.00100530 Ha          -0.02735571 eV
  | Sum of eigenvalues per atom                           :        -344.70329930 eV
  | Total energy (T->0) per atom                          :        -626.26264637 eV  <-- do not rely on this value for anything but (periodic) metals
  | Electronic free energy per atom                       :        -626.26292846 eV

  Self-consistency convergence accuracy:
  | Change of charge density      : 0.9654E-02
  | Change of sum of eigenvalues  : -.2385E+00 eV
  | Change of total energy        : 0.1576E-02 eV

  End self-consistency iteration #     5       :  max(cpu_time)    wall_clock(cpu1)
  | Time for this iteration                    :        0.778 s           0.778 s
  | Charge density update                      :        0.239 s           0.240 s
  | Density mixing                             :        0.006 s           0.006 s
  | Hartree multipole update                   :        0.004 s           0.004 s
  | Hartree multipole summation                :        0.144 s           0.144 s
  | Integration                                :        0.365 s           0.365 s
  | Solution of K.-S. eqns.                    :        0.018 s           0.018 s
  | Total energy evaluation                    :        0.001 s           0.001 s
------------------------------------------------------------

------------------------------------------------------------
          Begin self-consistency iteration #    6

  Date     :  20150727, Time     :  125136.163
------------------------------------------------------------
  Evaluating new KS density.
  Integration grid: deviation in total charge (<rho> - N_e) =   7.640217E-10
  Pulay mixing of updated and previous charge densities.

  Evaluating partitioned Hartree potential by multipole expansion.
  | Analytical far-field extrapolation by fixed multipoles:
  | Hartree multipole sum: apparent total charge =  -0.504176E-05
  Summing up the Hartree potential.
  Time summed over all CPUs for potential: real work        1.145 s, elapsed        1.151 s
  | RMS charge density error from multipole expansion :   0.145300E-01

  Integrating Hamiltonian matrix: batch-based integration.
  Time summed over all CPUs for integration: real work        2.849 s, elapsed        2.910 s

  Updating Kohn-Sham eigenvalues, eigenvectors, occupation numbers, and Fermi level.
  Solving generalized eigenproblem
  Updating Kohn-Sham eigenvalues and eigenfunctions.
  Solving real generalised eigenvalue problem by standard LAPACK (fast)
  Determining occupation numbers for Kohn-Sham eigenstates.
  | Chemical potential (Fermi level) in eV                 : -.20297467E+01
  | Error in electron count due to remaining E_F inaccuracy: 0.87787555E-11
  | Maximum occupation number of highest empty state:  0.00E+00

  Highest occupied state (VBM) at     -2.02974674 eV
  | Occupation number:      1.00000000

  Lowest unoccupied state (CBM) at    -0.98946958 eV
  | Occupation number:      0.00000000

  Overall HOMO-LUMO gap:      1.04027717 eV.

  Total energy components:
  | Sum of eigenvalues            :        -126.71277410 Ha       -3448.03001712 eV
  | XC energy correction          :         -28.23548198 Ha        -768.32655674 eV
  | XC potential correction       :          36.09159238 Ha         982.10219755 eV
  | Free-atom electrostatic energy:        -106.95755852 Ha       -2910.46324998 eV
  | Hartree energy correction     :          -4.33296637 Ha        -117.90601393 eV
  | van der Waals energy corr.    :           0.00000000 Ha           0.00000000 eV
  | Entropy correction            :          -0.00010367 Ha          -0.00282095 eV
  | ---------------------------
  | Total energy                  :        -230.14718859 Ha       -6262.62364024 eV
  | Total energy, T -> 0          :        -230.14729225 Ha       -6262.62646118 eV  <-- do not rely on this value for anything but (periodic) metals
  | Electronic free energy        :        -230.14739592 Ha       -6262.62928213 eV

  Derived energy quantities:
  | Kinetic energy                :         229.71349881 Ha        6250.82234098 eV
  | Electrostatic energy          :        -431.62520542 Ha      -11745.11942447 eV
  | Energy correction for multipole
  | error in Hartree potential    :          -0.00104955 Ha          -0.02855972 eV
  | Sum of eigenvalues per atom                           :        -344.80300171 eV
  | Total energy (T->0) per atom                          :        -626.26264612 eV  <-- do not rely on this value for anything but (periodic) metals
  | Electronic free energy per atom                       :        -626.26292821 eV

  Self-consistency convergence accuracy:
  | Change of charge density      : 0.6065E-02
  | Change of sum of eigenvalues  : -.9970E+00 eV
  | Change of total energy        : 0.2473E-05 eV

  End self-consistency iteration #     6       :  max(cpu_time)    wall_clock(cpu1)
  | Time for this iteration                    :        0.779 s           0.779 s
  | Charge density update                      :        0.240 s           0.240 s
  | Density mixing                             :        0.007 s           0.007 s
  | Hartree multipole update                   :        0.004 s           0.004 s
  | Hartree multipole summation                :        0.145 s           0.145 s
  | Integration                                :        0.364 s           0.364 s
  | Solution of K.-S. eqns.                    :        0.019 s           0.019 s
  | Total energy evaluation                    :        0.000 s           0.000 s
------------------------------------------------------------

------------------------------------------------------------
          Begin self-consistency iteration #    7

  Date     :  20150727, Time     :  125136.942
------------------------------------------------------------
  Evaluating new KS density.
  Integration grid: deviation in total charge (<rho> - N_e) =   8.753887E-12
  Pulay mixing of updated and previous charge densities.

  Evaluating partitioned Hartree potential by multipole expansion.
  | Analytical far-field extrapolation by fixed multipoles:
  | Hartree multipole sum: apparent total charge =  -0.504863E-05
  Summing up the Hartree potential.
  Time summed over all CPUs for potential: real work        1.145 s, elapsed        1.151 s
  | RMS charge density error from multipole expansion :   0.145514E-01

  Integrating Hamiltonian matrix: batch-based integration.
  Time summed over all CPUs for integration: real work        2.846 s, elapsed        2.915 s

  Updating Kohn-Sham eigenvalues, eigenvectors, occupation numbers, and Fermi level.
  Solving generalized eigenproblem
  Updating Kohn-Sham eigenvalues and eigenfunctions.
  Solving real generalised eigenvalue problem by standard LAPACK (fast)
  Determining occupation numbers for Kohn-Sham eigenstates.
  | Chemical potential (Fermi level) in eV                 : -.20389156E+01
  | Error in electron count due to remaining E_F inaccuracy: 0.31306193E-08
  | Maximum occupation number of highest empty state:  0.00E+00

  Highest occupied state (VBM) at     -2.03891564 eV
  | Occupation number:      1.00000000

  Lowest unoccupied state (CBM) at    -0.99913511 eV
  | Occupation number:      0.00000000

  Overall HOMO-LUMO gap:      1.03978053 eV.

  Total energy components:
  | Sum of eigenvalues            :        -126.72712394 Ha       -3448.42049603 eV
  | XC energy correction          :         -28.23467422 Ha        -768.30457636 eV
  | XC potential correction       :          36.09048375 Ha         982.07203005 eV
  | Free-atom electrostatic energy:        -106.95755852 Ha       -2910.46324998 eV
  | Hartree energy correction     :          -4.31831088 Ha        -117.50721763 eV
  | van der Waals energy corr.    :           0.00000000 Ha           0.00000000 eV
  | Entropy correction            :          -0.00010367 Ha          -0.00282095 eV
  | ---------------------------
  | Total energy                  :        -230.14718380 Ha       -6262.62350994 eV
  | Total energy, T -> 0          :        -230.14728747 Ha       -6262.62633089 eV  <-- do not rely on this value for anything but (periodic) metals
  | Electronic free energy        :        -230.14739113 Ha       -6262.62915184 eV

  Derived energy quantities:
  | Kinetic energy                :         229.72614016 Ha        6251.16632957 eV
  | Electrostatic energy          :        -431.63864974 Ha      -11745.48526315 eV
  | Energy correction for multipole
  | error in Hartree potential    :          -0.00106618 Ha          -0.02901230 eV
  | Sum of eigenvalues per atom                           :        -344.84204960 eV
  | Total energy (T->0) per atom                          :        -626.26263309 eV  <-- do not rely on this value for anything but (periodic) metals
  | Electronic free energy per atom                       :        -626.26291518 eV

  Self-consistency convergence accuracy:
  | Change of charge density      : 0.2260E-02
  | Change of sum of eigenvalues  : -.3905E+00 eV
  | Change of total energy        : 0.1303E-03 eV

  End self-consistency iteration #     7       :  max(cpu_time)    wall_clock(cpu1)
  | Time for this iteration                    :        0.781 s           0.781 s
  | Charge density update                      :        0.240 s           0.240 s
  | Density mixing                             :        0.007 s           0.008 s
  | Hartree multipole update                   :        0.003 s           0.004 s
  | Hartree multipole summation                :        0.145 s           0.145 s
  | Integration                                :        0.365 s           0.365 s
  | Solution of K.-S. eqns.                    :        0.019 s           0.019 s
  | Total energy evaluation                    :        0.000 s           0.000 s
------------------------------------------------------------

------------------------------------------------------------
          Begin self-consistency iteration #    8

  Date     :  20150727, Time     :  125137.723
------------------------------------------------------------
  Evaluating new KS density.
  Integration grid: deviation in total charge (<rho> - N_e) =   3.130612E-09
  Pulay mixing of updated and previous charge densities.

  Evaluating partitioned Hartree potential by multipole expansion.
  | Analytical far-field extrapolation by fixed multipoles:
  | Hartree multipole sum: apparent total charge =  -0.504704E-05
  Summing up the Hartree potential.
  Time summed over all CPUs for potential: real work        1.145 s, elapsed        1.152 s
  | RMS charge density error from multipole expansion :   0.145554E-01

  Integrating Hamiltonian matrix: batch-based integration.
  Time summed over all CPUs for integration: real work        2.846 s, elapsed        2.909 s

  Updating Kohn-Sham eigenvalues, eigenvectors, occupation numbers, and Fermi level.
  Solving generalized eigenproblem
  Updating Kohn-Sham eigenvalues and eigenfunctions.
  Solving real generalised eigenvalue problem by standard LAPACK (fast)
  Determining occupation numbers for Kohn-Sham eigenstates.
  | Chemical potential (Fermi level) in eV                 : -.20396668E+01
  | Error in electron count due to remaining E_F inaccuracy: 0.50226134E-09
  | Maximum occupation number of highest empty state:  0.00E+00

  Highest occupied state (VBM) at     -2.03966685 eV
  | Occupation number:      1.00000000

  Lowest unoccupied state (CBM) at    -0.99939035 eV
  | Occupation number:      0.00000000

  Overall HOMO-LUMO gap:      1.04027650 eV.

  Total energy components:
  | Sum of eigenvalues            :        -126.72864372 Ha       -3448.46185136 eV
  | XC energy correction          :         -28.23454720 Ha        -768.30111996 eV
  | XC potential correction       :          36.09031168 Ha         982.06734773 eV
  | Free-atom electrostatic energy:        -106.95755852 Ha       -2910.46324998 eV
  | Hartree energy correction     :          -4.31674611 Ha        -117.46463828 eV
  | van der Waals energy corr.    :           0.00000000 Ha           0.00000000 eV
  | Entropy correction            :          -0.00010367 Ha          -0.00282095 eV
  | ---------------------------
  | Total energy                  :        -230.14718387 Ha       -6262.62351185 eV
  | Total energy, T -> 0          :        -230.14728754 Ha       -6262.62633280 eV  <-- do not rely on this value for anything but (periodic) metals
  | Electronic free energy        :        -230.14739120 Ha       -6262.62915375 eV

  Derived energy quantities:
  | Kinetic energy                :         229.72583489 Ha        6251.15802278 eV
  | Electrostatic energy          :        -431.63847156 Ha      -11745.48041468 eV
  | Energy correction for multipole
  | error in Hartree potential    :          -0.00106920 Ha          -0.02909450 eV
  | Sum of eigenvalues per atom                           :        -344.84618514 eV
  | Total energy (T->0) per atom                          :        -626.26263328 eV  <-- do not rely on this value for anything but (periodic) metals
  | Electronic free energy per atom                       :        -626.26291537 eV

  Self-consistency convergence accuracy:
  | Change of charge density      : 0.7336E-03
  | Change of sum of eigenvalues  : -.4136E-01 eV
  | Change of total energy        : -.1909E-05 eV

  End self-consistency iteration #     8       :  max(cpu_time)    wall_clock(cpu1)
  | Time for this iteration                    :        0.780 s           0.780 s
  | Charge density update                      :        0.239 s           0.239 s
  | Density mixing                             :        0.009 s           0.009 s
  | Hartree multipole update                   :        0.004 s           0.004 s
  | Hartree multipole summation                :        0.145 s           0.145 s
  | Integration                                :        0.364 s           0.364 s
  | Solution of K.-S. eqns.                    :        0.019 s           0.018 s
  | Total energy evaluation                    :        0.000 s           0.000 s
------------------------------------------------------------

------------------------------------------------------------
          Begin self-consistency iteration #    9

  Date     :  20150727, Time     :  125138.503
------------------------------------------------------------
  Evaluating new KS density.
  Integration grid: deviation in total charge (<rho> - N_e) =   5.022649E-10
  Pulay mixing of updated and previous charge densities.

  Evaluating partitioned Hartree potential by multipole expansion.
  | Analytical far-field extrapolation by fixed multipoles:
  | Hartree multipole sum: apparent total charge =  -0.503936E-05
  Summing up the Hartree potential.
  Time summed over all CPUs for potential: real work        1.145 s, elapsed        1.152 s
  | RMS charge density error from multipole expansion :   0.145466E-01

  Integrating Hamiltonian matrix: batch-based integration.
  Time summed over all CPUs for integration: real work        2.847 s, elapsed        2.907 s

  Updating Kohn-Sham eigenvalues, eigenvectors, occupation numbers, and Fermi level.
  Solving generalized eigenproblem
  Updating Kohn-Sham eigenvalues and eigenfunctions.
  Solving real generalised eigenvalue problem by standard LAPACK (fast)
  Determining occupation numbers for Kohn-Sham eigenstates.
  | Chemical potential (Fermi level) in eV                 : -.20414157E+01
  | Error in electron count due to remaining E_F inaccuracy: -.46405546E-10
  | Maximum occupation number of highest empty state:  0.00E+00

  Highest occupied state (VBM) at     -7.00362472 eV
  | Occupation number:      2.00000000

  Lowest unoccupied state (CBM) at    -2.04141566 eV
  | Occupation number:      1.00000000

  Overall HOMO-LUMO gap:      4.96220906 eV.

  Total energy components:
  | Sum of eigenvalues            :        -126.73308652 Ha       -3448.58274622 eV
  | XC energy correction          :         -28.23401866 Ha        -768.28673766 eV
  | XC potential correction       :          36.08961875 Ha         982.04849223 eV
  | Free-atom electrostatic energy:        -106.95755852 Ha       -2910.46324998 eV
  | Hartree energy correction     :          -4.31213873 Ha        -117.33926494 eV
  | van der Waals energy corr.    :           0.00000000 Ha           0.00000000 eV
  | Entropy correction            :          -0.00010367 Ha          -0.00282095 eV
  | ---------------------------
  | Total energy                  :        -230.14718367 Ha       -6262.62350657 eV
  | Total energy, T -> 0          :        -230.14728734 Ha       -6262.62632752 eV  <-- do not rely on this value for anything but (periodic) metals
  | Electronic free energy        :        -230.14739101 Ha       -6262.62914846 eV

  Derived energy quantities:
  | Kinetic energy                :         229.72789963 Ha        6251.21420727 eV
  | Electrostatic energy          :        -431.64106465 Ha      -11745.55097618 eV
  | Energy correction for multipole
  | error in Hartree potential    :          -0.00107222 Ha          -0.02917668 eV
  | Sum of eigenvalues per atom                           :        -344.85827462 eV
  | Total energy (T->0) per atom                          :        -626.26263275 eV  <-- do not rely on this value for anything but (periodic) metals
  | Electronic free energy per atom                       :        -626.26291485 eV

  Self-consistency convergence accuracy:
  | Change of charge density      : 0.5403E-03
  | Change of sum of eigenvalues  : -.1209E+00 eV
  | Change of total energy        : 0.5285E-05 eV

  End self-consistency iteration #     9       :  max(cpu_time)    wall_clock(cpu1)
  | Time for this iteration                    :        0.781 s           0.781 s
  | Charge density update                      :        0.240 s           0.239 s
  | Density mixing                             :        0.009 s           0.010 s
  | Hartree multipole update                   :        0.004 s           0.004 s
  | Hartree multipole summation                :        0.145 s           0.145 s
  | Integration                                :        0.364 s           0.364 s
  | Solution of K.-S. eqns.                    :        0.019 s           0.018 s
  | Total energy evaluation                    :        0.000 s           0.001 s
------------------------------------------------------------

------------------------------------------------------------
          Begin self-consistency iteration #   10

  Date     :  20150727, Time     :  125139.284
------------------------------------------------------------
  Evaluating new KS density.
  Integration grid: deviation in total charge (<rho> - N_e) =  -4.641620E-11
  Pulay mixing of updated and previous charge densities.

  Evaluating partitioned Hartree potential by multipole expansion.
  | Analytical far-field extrapolation by fixed multipoles:
  | Hartree multipole sum: apparent total charge =  -0.503509E-05
  Summing up the Hartree potential.
  Time summed over all CPUs for potential: real work        1.145 s, elapsed        1.152 s
  | RMS charge density error from multipole expansion :   0.145471E-01

  Integrating Hamiltonian matrix: batch-based integration.
  Time summed over all CPUs for integration: real work        2.847 s, elapsed        2.906 s

  Updating Kohn-Sham eigenvalues, eigenvectors, occupation numbers, and Fermi level.
  Solving generalized eigenproblem
  Updating Kohn-Sham eigenvalues and eigenfunctions.
  Solving real generalised eigenvalue problem by standard LAPACK (fast)
  Determining occupation numbers for Kohn-Sham eigenstates.
  | Chemical potential (Fermi level) in eV                 : -.20414618E+01
  | Error in electron count due to remaining E_F inaccuracy: -.83718632E-09
  | Maximum occupation number of highest empty state:  0.00E+00

  Highest occupied state (VBM) at     -7.00276975 eV
  | Occupation number:      2.00000000

  Lowest unoccupied state (CBM) at    -2.04146176 eV
  | Occupation number:      1.00000000

  Overall HOMO-LUMO gap:      4.96130799 eV.

  Total energy components:
  | Sum of eigenvalues            :        -126.73282834 Ha       -3448.57572071 eV
  | XC energy correction          :         -28.23404442 Ha        -768.28743877 eV
  | XC potential correction       :          36.08965536 Ha         982.04948858 eV
  | Free-atom electrostatic energy:        -106.95755852 Ha       -2910.46324998 eV
  | Hartree energy correction     :          -4.31240783 Ha        -117.34658762 eV
  | van der Waals energy corr.    :           0.00000000 Ha           0.00000000 eV
  | Entropy correction            :          -0.00010367 Ha          -0.00282095 eV
  | ---------------------------
  | Total energy                  :        -230.14718375 Ha       -6262.62350850 eV
  | Total energy, T -> 0          :        -230.14728741 Ha       -6262.62632944 eV  <-- do not rely on this value for anything but (periodic) metals
  | Electronic free energy        :        -230.14739108 Ha       -6262.62915039 eV

  Derived energy quantities:
  | Kinetic energy                :         229.72803994 Ha        6251.21802519 eV
[...]
  | Atom     7: H
  |   Hirshfeld charge        :      0.11105441
  |   Free atom volume        :     10.44207651
  |   Hirshfeld volume        :     11.50622851
  |   Hirshfeld dipole vector :     -0.01448027       0.00274882      -0.06540555
  |   Hirshfeld dipole moment :      0.06704566
  |   Hirshfeld second moments:      0.00840445       0.00497553       0.01992822
  |                                  0.00497553       0.03974254       0.00931754
  |                                  0.01992822       0.00931754       0.02164732
  ----------------------------------------------------------------------
  | Atom     8: O
  |   Hirshfeld charge        :     -0.33070838
  |   Free atom volume        :     23.95238533
  |   Hirshfeld volume        :     24.07488915
  |   Hirshfeld dipole vector :      0.01990681       0.02379136       0.07638643
  |   Hirshfeld dipole moment :      0.08244511
  |   Hirshfeld second moments:      0.00965736       0.06296877      -0.01761553
  |                                  0.06296877      -0.05848118      -0.00488203
  |                                 -0.01761553      -0.00488203      -0.03685428
  ----------------------------------------------------------------------
  | Atom     9: H
  |   Hirshfeld charge        :      0.12863549
  |   Free atom volume        :     10.44207651
  |   Hirshfeld volume        :      8.40569630
  |   Hirshfeld dipole vector :      0.09654163       0.06651396       0.03698362
  |   Hirshfeld dipole moment :      0.12293161
  |   Hirshfeld second moments:      0.08912167       0.01976335      -0.01523396
  |                                  0.01976335       0.06211609      -0.00815480
  |                                 -0.01523396      -0.00815480       0.07873610
  ----------------------------------------------------------------------
  | Atom    10: H
  |   Hirshfeld charge        :      0.09043196
  |   Free atom volume        :     10.44207651
  |   Hirshfeld volume        :     10.93912861
  |   Hirshfeld dipole vector :     -0.03777162      -0.00378741       0.07639860
  |   Hirshfeld dipole moment :      0.08530994
  |   Hirshfeld second moments:      0.02531459       0.00890014       0.01001088
  |                                  0.00890014      -0.00033304       0.01504718
  |                                  0.01001088       0.01504718       0.04834649
  ----------------------------------------------------------------------


  Total energy components:
  | Sum of eigenvalues            :        -126.73190730 Ha       -3448.55065807 eV
  | XC energy correction          :         -28.23413368 Ha        -768.28986772 eV
  | XC potential correction       :          36.08977636 Ha         982.05278097 eV
  | Free-atom electrostatic energy:        -106.95755852 Ha       -2910.46324998 eV
  | Hartree energy correction     :          -4.31336066 Ha        -117.37251545 eV
  | van der Waals energy corr.    :          -0.00114053 Ha          -0.03103536 eV
  | Entropy correction            :          -0.00010367 Ha          -0.00282095 eV
  | ---------------------------
  | Total energy                  :        -230.14832434 Ha       -6262.65454561 eV
  | Total energy, T -> 0          :        -230.14842801 Ha       -6262.65736656 eV  <-- do not rely on this value for anything but (periodic) metals
  | Electronic free energy        :        -230.14853167 Ha       -6262.66018751 eV

  Derived energy quantities:
  | Kinetic energy                :         229.72789755 Ha        6251.21415055 eV
  | Electrostatic energy          :        -431.64094767 Ha      -11745.54779308 eV
  | Energy correction for multipole
  | error in Hartree potential    :          -0.00107795 Ha          -0.02933265 eV
  | Sum of eigenvalues per atom                           :        -344.85506581 eV
  | Total energy (T->0) per atom                          :        -626.26573666 eV  <-- do not rely on this value for anything but (periodic) metals
  | Electronic free energy per atom                       :        -626.26601875 eV

  atomic forces [eV/Ang]:
  -----------------------
  atom #    1
   Hellmann-Feynman + Multipole  : -.240361E+01 -.820250E+01 -.674953E+01
   Pulay + GGA                   : 0.238863E+01 0.896894E+01 0.613898E+01
   Van der Waals               : 0.558736E-02 -.311586E-02 0.593745E-02
   ----------------------------------------------------------------
   Total forces(   1)            : -.938878E-02 0.763318E+00 -.604613E+00
  atom #    2
   Hellmann-Feynman + Multipole  : 0.121164E+00 -.431508E+00 0.140510E+00
   Pulay + GGA                   : -.265279E-01 0.591412E-01 -.347090E-01
   Van der Waals               : 0.229630E-02 0.157204E-02 0.252030E-02
   ----------------------------------------------------------------
   Total forces(   2)            : 0.969322E-01 -.370795E+00 0.108321E+00
  atom #    3
   Hellmann-Feynman + Multipole  : -.280908E+00 -.148995E+00 0.110044E+00
   Pulay + GGA                   : 0.153917E+00 0.116362E-01 -.149425E-01
   Van der Waals               : 0.294973E-02 -.703450E-02 -.980953E-03
   ----------------------------------------------------------------
   Total forces(   3)            : -.124041E+00 -.144393E+00 0.941202E-01
  atom #    4
   Hellmann-Feynman + Multipole  : 0.277490E-01 -.554245E-01 0.186409E+00
   Pulay + GGA                   : -.664918E-01 -.224304E-01 0.166247E+00
   Van der Waals               : 0.177602E-02 -.285294E-02 0.236900E-02
   ----------------------------------------------------------------
   Total forces(   4)            : -.369668E-01 -.807078E-01 0.355025E+00
  atom #    5
   Hellmann-Feynman + Multipole  : -.636242E+01 -.729925E+01 0.893178E+01
   Pulay + GGA                   : 0.687493E+01 0.677517E+01 -.581043E+01
   Van der Waals               : -.784922E-03 0.411715E-02 -.316785E-04
   ----------------------------------------------------------------
   Total forces(   5)            : 0.511725E+00 -.519959E+00 0.312131E+01
  atom #    6
   Hellmann-Feynman + Multipole  : -.796299E-01 -.190816E+00 -.125238E+00
   Pulay + GGA                   : 0.485578E-01 0.117856E+00 0.393643E-01
   Van der Waals               : 0.305579E-03 0.745353E-02 0.964286E-03
   ----------------------------------------------------------------
   Total forces(   6)            : -.307665E-01 -.655064E-01 -.849098E-01
  atom #    7
   Hellmann-Feynman + Multipole  : -.322860E+00 0.418013E+00 -.278961E+01
   Pulay + GGA                   : -.327859E-01 0.223058E-01 -.139756E+00
   Van der Waals               : -.190369E-02 0.351585E-02 -.216706E-02
   ----------------------------------------------------------------
   Total forces(   7)            : -.357549E+00 0.443835E+00 -.293153E+01
  atom #    8
   Hellmann-Feynman + Multipole  : -.232147E+01 -.341044E+01 -.169355E+02
   Pulay + GGA                   : 0.304594E+01 0.373349E+01 0.152041E+02
   Van der Waals               : -.589546E-02 -.182550E-02 -.380942E-02
   ----------------------------------------------------------------
   Total forces(   8)            : 0.718571E+00 0.321229E+00 -.173524E+01
  atom #    9
   Hellmann-Feynman + Multipole  : -.416117E+00 -.235732E+00 0.358675E+00
   Pulay + GGA                   : 0.106344E+00 0.743738E-01 0.585992E-01
   Van der Waals               : -.177962E-02 -.154838E-02 -.151564E-02
   ----------------------------------------------------------------
   Total forces(   9)            : -.311553E+00 -.162907E+00 0.415758E+00
  atom #   10
   Hellmann-Feynman + Multipole  : -.353889E+00 -.137041E+00 0.115853E+01
   Pulay + GGA                   : -.979382E-01 -.491931E-01 0.100990E+00
   Van der Waals               : -.255130E-02 -.281389E-03 -.328629E-02
   ----------------------------------------------------------------
   Total forces(  10)            : -.454378E+00 -.186515E+00 0.125623E+01
  Timings for vdw_correction_hirshfeld (Tkatchenko-Scheffler 2009):
  | CPU time:        2.001 s, Wall clock time:        2.000 s.
  Removing unitary transformations (pure translations, rotations) from forces on atoms.
  Atomic forces before filtering:
  | Net force on center of mass :  0.258489E-02 -.240190E-02 -.552977E-02 eV/A
  | Net torque on center of mass:  0.136593E-01 -.115035E-01 0.102094E-02 eV
  Atomic forces after filtering:
  | Net force on center of mass :  0.892031E-16 0.892031E-16 -.178406E-15 eV/A
  | Net torque on center of mass:  -.377634E-15 -.377634E-15 -.613655E-15 eV
 
  Energy and forces in a compact form:
  | Total energy uncorrected      :         -0.626265454561047E+04 eV
  | Total energy corrected        :         -0.626265736655839E+04 eV  <-- do not rely on this value for anything but (periodic) metals
  | Electronic free energy        :         -0.626266018750631E+04 eV
  Total atomic forces (unitary forces cleaned) [eV/Ang]:
  |   1         -0.101480708220932E-01          0.763411465995715E+00         -0.603176157788612E+00
  |   2          0.963113037431218E-01         -0.370765028323339E+00          0.109424364993969E+00
  |   3         -0.124727279288308E+00         -0.144512465140410E+00          0.952276929024515E-01
  |   4         -0.375585866328696E-01         -0.800789459126656E-01          0.356581522727862E+00
  |   5          0.511310405261297E+00         -0.519956448770683E+00          0.312197804828666E+01
  |   6         -0.309180808052435E-01         -0.654434219491357E-01         -0.847237768423156E-01
  |   7         -0.358116698024721E+00          0.443432952116637E+00         -0.293090683105464E+01
  |   8          0.718884831658350E+00          0.321779691462391E+00         -0.173557500406401E+01
  |   9         -0.311047425905718E+00         -0.162375917809806E+00          0.415020513030351E+00
  |  10         -0.453990399183814E+00         -0.185491881668703E+00          0.125614962780829E+01
 
  ------------------------------------ 
  Start decomposition of the XC Energy 
  ------------------------------------ 
  Hartree-Fock part   :          0.000000000 Ha              0.000000000 eV
  ------------------------------------ 
  X Energy            :        -27.235025950 Ha           -741.102762991 eV
  C Energy GGA        :         -0.999107735 Ha            -27.187104732 eV
  Total XC Energy     :        -28.234133685 Ha           -768.289867723 eV
  LDA X and C from self-consistent density 
  X Energy LDA        :        -24.539999771 Ha           -667.767369388 eV
  C Energy LDA        :         -2.017293715 Ha            -54.893354919 eV
  ------------------------------------ 
  End decomposition of the XC Energy 
  ------------------------------------ 
  Performing Hirshfeld analysis of fragment charges and moments.
  ----------------------------------------------------------------------
  | Atom     1: O
  |   Hirshfeld charge        :     -0.13585030
  |   Free atom volume        :     23.95238533
  |   Hirshfeld volume        :     23.67308427
  |   Hirshfeld dipole vector :     -0.00017605       0.03983772       0.01264241
  |   Hirshfeld dipole moment :      0.04179600
  |   Hirshfeld second moments:      0.05038191      -0.00542925      -0.00531715
  |                                 -0.00542925       0.00037670      -0.02694364
  |                                 -0.00531715      -0.02694364       0.01988089
  ----------------------------------------------------------------------
  | Atom     2: H
  |   Hirshfeld charge        :      0.09718265
  |   Free atom volume        :     10.44207651
  |   Hirshfeld volume        :     11.16126066
  |   Hirshfeld dipole vector :     -0.00373044       0.01467244      -0.00577357
  |   Hirshfeld dipole moment :      0.01620280
  |   Hirshfeld second moments:      0.01711583       0.01046778       0.01178401
  |                                  0.01046778       0.00863223       0.00474430
  |                                  0.01178401       0.00474430       0.02348001
  ----------------------------------------------------------------------
  | Atom     3: H
  |   Hirshfeld charge        :      0.08713630
  |   Free atom volume        :     10.44207651
  |   Hirshfeld volume        :     13.57377889
  |   Hirshfeld dipole vector :      0.01071955       0.02424400      -0.00284352
  |   Hirshfeld dipole moment :      0.02666019
  |   Hirshfeld second moments:     -0.03290404      -0.00401589      -0.00392563
  |                                 -0.00401589      -0.01722331       0.01349360
  |                                 -0.00392563       0.01349360      -0.02570339
  ----------------------------------------------------------------------
  | Atom     4: H
  |   Hirshfeld charge        :      0.05204272
  |   Free atom volume        :     10.44207651
  |   Hirshfeld volume        :     15.90231841
  |   Hirshfeld dipole vector :     -0.00066596       0.02191137      -0.03103128
  |   Hirshfeld dipole moment :      0.03799331
  |   Hirshfeld second moments:     -0.05061040       0.00967688       0.01470042
  |                                  0.00967688      -0.05313251       0.00752036
  |                                  0.01470042       0.00752036      -0.11057055
  ----------------------------------------------------------------------
  | Atom     5: O
  |   Hirshfeld charge        :     -0.21157952
  |   Free atom volume        :     23.95238533
  |   Hirshfeld volume        :     22.83482493
  |   Hirshfeld dipole vector :      0.03334053       0.00324113      -0.02336063
  |   Hirshfeld dipole moment :      0.04083889
  |   Hirshfeld second moments:     -0.01519670       0.00267273       0.04120662
  |                                  0.00267273       0.05313975       0.00877382
  |                                  0.04120662       0.00877382       0.04495722
  ----------------------------------------------------------------------
  | Atom     6: H
  |   Hirshfeld charge        :      0.11167579
  |   Free atom volume        :     10.44207651
  |   Hirshfeld volume        :     11.51099605
  |   Hirshfeld dipole vector :      0.02573795       0.04787112       0.02193557
  |   Hirshfeld dipole moment :      0.05861105
  |   Hirshfeld second moments:     -0.00078463      -0.01116894       0.02080337
  |                                 -0.01116894       0.02816777       0.00057391
  |                                  0.02080337       0.00057391       0.02792103
  ----------------------------------------------------------------------
  | Atom     7: H
  |   Hirshfeld charge        :      0.11105441
  |   Free atom volume        :     10.44207651
  |   Hirshfeld volume        :     11.50622851
  |   Hirshfeld dipole vector :     -0.01448027       0.00274882      -0.06540555
  |   Hirshfeld dipole moment :      0.06704566
  |   Hirshfeld second moments:      0.00840445       0.00497553       0.01992822
  |                                  0.00497553       0.03974254       0.00931754
  |                                  0.01992822       0.00931754       0.02164732
  ----------------------------------------------------------------------
  | Atom     8: O
  |   Hirshfeld charge        :     -0.33070838
  |   Free atom volume        :     23.95238533
  |   Hirshfeld volume        :     24.07488915
  |   Hirshfeld dipole vector :      0.01990681       0.02379136       0.07638643
  |   Hirshfeld dipole moment :      0.08244511
  |   Hirshfeld second moments:      0.00965736       0.06296877      -0.01761553
  |                                  0.06296877      -0.05848118      -0.00488203
  |                                 -0.01761553      -0.00488203      -0.03685428
  ----------------------------------------------------------------------
  | Atom     9: H
  |   Hirshfeld charge        :      0.12863549
  |   Free atom volume        :     10.44207651
  |   Hirshfeld volume        :      8.40569630
  |   Hirshfeld dipole vector :      0.09654163       0.06651396       0.03698362
  |   Hirshfeld dipole moment :      0.12293161
  |   Hirshfeld second moments:      0.08912167       0.01976335      -0.01523396
  |                                  0.01976335       0.06211609      -0.00815480
  |                                 -0.01523396      -0.00815480       0.07873610
  ----------------------------------------------------------------------
  | Atom    10: H
  |   Hirshfeld charge        :      0.09043196
  |   Free atom volume        :     10.44207651
  |   Hirshfeld volume        :     10.93912861
  |   Hirshfeld dipole vector :     -0.03777162      -0.00378741       0.07639860
  |   Hirshfeld dipole moment :      0.08530994
  |   Hirshfeld second moments:      0.02531459       0.00890014       0.01001088
  |                                  0.00890014      -0.00033304       0.01504718
  |                                  0.01001088       0.01504718       0.04834649
  ----------------------------------------------------------------------


------------------------------------------------------------------------------
  Final output of selected total energy values:

  The following output summarizes some interesting total energy values
  at the end of a run (AFTER all relaxation, molecular dynamics, etc.).

  | Total energy of the DFT / Hartree-Fock s.c.f. calculation      :          -6262.654545610 eV
  | Final zero-broadening corrected energy (caution - metals only) :          -6262.657366558 eV
  | For reference only, the value of 1 Hartree used in FHI-aims is :             27.211384500 eV

  Before relying on these values, please be sure to understand exactly which
  total energy value is referred to by a given number. Different objects may
  all carry the same name 'total energy'. Definitions:

  Total energy of the DFT / Hartree-Fock s.c.f. calculation:
  | Note that this energy does not include ANY quantities calculated after the
  | s.c.f. cycle, in particular not ANY RPA, MP2, etc. many-body perturbation terms.

  Final zero-broadening corrected energy:
  | For metallic systems only, a broadening of the occupation numbers at the Fermi
  | level can be extrapolated back to zero broadening by an electron-gas inspired
  | formula. For all systems that are not real metals, this value can be
  | meaningless and should be avoided.

------------------------------------------------------------------------------

------------------------------------------------------------
          Leaving FHI-aims.
          Date     :  20150727, Time     :  125144.725

          Computational steps:
          | Number of self-consistency cycles          :           14

          Detailed time accounting                     :  max(cpu_time)    wall_clock(cpu1)
          | Total time                                 :       13.792 s          13.824 s
          | Preparation time                           :        0.173 s           0.485 s
          | Grid partitioning                          :        0.096 s           0.095 s
          | Preloading free-atom quantities on grid    :        0.013 s           0.014 s
          | Free-atom superposition energy             :        0.034 s           0.033 s
          | Total time for integrations                :        5.670 s           5.668 s
          | Total time for solution of K.-S. equations :        0.333 s           0.333 s
          | Total time for density & force components  :        4.344 s           4.344 s
          | Total time for mixing                      :        0.111 s           0.110 s
          | Total time for Hartree multipole update    :        0.054 s           0.056 s
          | Total time for Hartree multipole sum       :        2.502 s           2.503 s
          | Total time for total energy evaluation     :        0.002 s           0.006 s
          | Total time for scaled ZORA corrections     :        0.000 s           0.000 s
          | Total time for TS (2009) vdW correction    :        0.025 s           0.025 s

          Have a nice day.
------------------------------------------------------------
