  MPI-parallelism will be employed.
------------------------------------------------------------
          Invoking FHI-aims ...
          Version 081213
          Compiled on 2013/08/29 at 17:41:06 on host generoso.

          When using FHI-aims, please cite the following reference:

          Volker Blum, Ralf Gehrke, Felix Hanke, Paula Havu,
          Ville Havu, Xinguo Ren, Karsten Reuter, and Matthias Scheffler,
          'Ab Initio Molecular Simulations with Numeric Atom-Centered Orbitals: FHI-aims',
          Computer Physics Communications 180, 2175-2196 (2009)

          For any questions about FHI-aims, please visit the aimsclub website
          with its forums and wiki. Contributions to both the forums and the
          wiki are warmly encouraged - they are for you, and everyone is welcome there.

------------------------------------------------------------

  Date     :  20150727, Time     :  124844.153
  Time zero on CPU 1             :   0.419920000000000E-01  s.
  Internal wall clock time zero  :           207233324.153  s.

  Using        8 parallel tasks.
  Task        0 on host gen59 reporting.
  Task        1 on host gen59 reporting.
  Task        2 on host gen59 reporting.
  Task        3 on host gen59 reporting.
  Task        4 on host gen59 reporting.
  Task        5 on host gen59 reporting.
  Task        6 on host gen59 reporting.
  Task        7 on host gen59 reporting.

  Performing system and environment tests:
  | Environment variable OMP_NUM_THREADS correctly set to 1.
  | Checking for scalapack...
  | No scalapack compiled in.

  Obtaining array dimensions for all initial allocations:
  
  -----------------------------------------------------------------------
  Parsing control.in (first pass over file, find array dimensions only).
  The contents of control.in will be repeated verbatim below
  unless switched off by setting 'verbatim_writeout .false.' .
  in the first line of control.in .
  -----------------------------------------------------------------------
  
  #########################################################################################
  #
  #  Volker Blum, FHI 2008 : Test run input file control.in
  #
  #########################################################################################
  #
  #  Physical model
  #
    xc                 rpbe
    spin               none
    relativistic       atomic_zora scalar
    charge             0.
   vdw_correction_hirshfeld
  #
  #  SCF convergence
  #
    occupation_type    gaussian 0.01
    mixer              pulay
      n_max_pulay        10
      charge_mix_param   0.1
    sc_accuracy_rho    5E-5
    sc_accuracy_eev    5E-3
    sc_accuracy_etot   5E-6
    sc_iter_limit      3000
  #
  #  Eigenvalue solver
  #
    KS_method          lapack
      empty_states       8
      basis_threshold    0.e-5
  #
  #  Efficiency
  #
  #   all previous settings are now default, except stratmann still
  #   undecided. Continue to handle stratmann with care, if at all.
  #
  #  partition_type stratmann
    partition_type rho_r2
  #  hartree_partition_type stratmann
  #
  #  Oprions for large clusters (100's of atoms: memory saving / better scaling)
  #
  # for periodic systems:
  #
    density_update_method orbital
    packed_matrix_format none
  #  k_grid 6 6 6
  #  output k_eigenvalue 1
  #  distributed_spline_storage .true.
  #
  #  Relaxation
  #
  #  relax_geometry   bfgs 5.e-3
    sc_accuracy_forces 5.E-4
    final_forces_cleaned .true.
  #
  #  Output options
  #
  #  output mulliken
    output Hirshfeld
  #  output dipole
  
  #harmonic_length_scale 0.001
  
  ################################################################################
  #
  #  FHI-aims code project
  #  VB, Fritz-Haber Institut, 2007
  #
  #  Suggested "safe" defaults for H atom (to be pasted into control.in file)
  #  Basis constructed for a non-relativistic H2 molecule using the
  #  PW-LDA functional.
  #
  ################################################################################
    species        H
  #     global species definitions
      nucleus             1
      cut_pot             4.0  2.0  1.0
      cut_free_atom       finite 8.0
      logarithmic         0.00010000 100.00  1.0123
      basis_dep_cutoff    1d-4  # 1d-4 is safe default - please check 5d-4 if you wish!
      radial_base         24 7.0
      radial_multiplier   2
      angular_grids       specified
        division   0.2783  110
        division   0.3822  194
        division   0.5626  302
  #      division   0.5922  434
  #      division   0.6227  590
  #      division   0.7206  770
        outer_grid  302
      l_hartree           4
  ################################################################################
  #
  #  Definition of "minimal" basis
  #
  ################################################################################
  #     valence basis states
      valence      1  s   1.
  #     ion occupancy
      ion_occ      1  s   0.5
  ################################################################################
  #
  #  Suggested additional basis functions. For production calculations,
  #  uncomment them one after another (the most important basis functions are
  #  listed first).
  #
  ################################################################################
  #  "First tier" - improvements: -1014.90 meV to -62.69 meV
       hydro 2 s 2.1
       hydro 2 p 3.5
  #  "Second tier" - improvements: -12.89 meV to -1.83 meV
       hydro 1 s 0.85
       hydro 2 p 3.7
       hydro 2 s 1.2
       hydro 3 d 7
  #  "Third tier" - improvements: -0.25 meV to -0.12 meV
  #     hydro 4 f 11.2
  #     hydro 3 p 4.8
  #     hydro 4 d 9
  #     hydro 3 s 3.2
  
  ################################################################################
  #
  #  FHI-aims code project
  #  VB, Fritz-Haber Institut, 2007
  #
  #  Suggested "safe" defaults for O atom (to be pasted into control.in file)
  #  All values have been tested for a non-relativistic, non-spinpolarized O2
  #  molecule using the PW-LDA functional. Validity for PBE is expected.
  #
  #  Constructed for dimers: 1.0 A, 1.208 A, 1.5 A, 2.0 A, 3.0 A
  #
  ################################################################################
    species        O
  #     global species definitions
      nucleus             8
      mass                15.9994
      l_hartree           4
      cut_pot             4.0  2.0  1.0
      cut_free_atom       finite 8.0
      basis_dep_cutoff    1d-4  # 1d-4 is safe default - please check 5d-4 if you wish!
      logarithmic         0.00010000 100.00  1.0123
      radial_base         36 7.0
      radial_multiplier   2
       angular_grids specified
        division   0.4087  110
        division   0.5181  194
        division   0.6184  302
  #      division   0.7315  434
  #      division   0.7934  590
  #      division   0.9656  770
  #      division   1.4041  974
  #      outer_grid 974
        outer_grid 302
  ################################################################################
  #
  #  Definition of "minimal" basis
  #
  ################################################################################
  #     valence basis states
      valence      2  s   2.
      valence      2  p   4.
  #     ion occupancy
      ion_occ      2  s   1.
      ion_occ      2  p   3.
  ################################################################################
  #
  #  Suggested additional basis functions. For production calculations,
  #  uncomment them one after another (the most important basis functions are
  #  listed first).
  #
  ################################################################################
  #  "First tier" - improvements: -699.05 meV to -159.38 meV
       hydro 2 p 1.8
       hydro 3 d 7.6
       hydro 3 s 6.4
  #  "Second tier" - improvements: -49.91 meV to -5.39 meV
       hydro 4 f 11.6
       hydro 3 p 6.2
       hydro 3 d 5.6
       hydro 5 g 17.6
       hydro 1 s 0.75
  #  "Third tier" - improvements: -2.83 meV to -0.50 meV
  #     ionic 2 p auto
  #     hydro 4 f 10.8
  #     hydro 4 d 4.7
  #     hydro 2 s 6.8
  #  "Fourth tier" - improvements: -0.40 meV to -0.12 meV
  #     hydro 3 p 5
  #     hydro 3 s 3.3
  #     hydro 5 g 15.6
  #     hydro 4 f 17.6
  #     hydro 4 d 14
  # Further basis functions - -0.08 meV and below
  #     hydro 3 s 2.1
  #     hydro 4 d 11.6
  #     hydro 3 p 16
  #     hydro 2 s 17.2
  
  
  -----------------------------------------------------------------------
  Completed first pass over input file control.in .
  -----------------------------------------------------------------------
  
  
  -----------------------------------------------------------------------
  Parsing geometry.in (first pass over file, find array dimensions only).
  The contents of geometry.in will be repeated verbatim below
  unless switched off by setting 'verbatim_writeout .false.' .
  in the first line of geometry.in .
  -----------------------------------------------------------------------
  
  atom      -4.053030000      0.065001000     -1.525160000  O
  atom      -4.566710000      0.974813000     -1.912820000  H
  atom      -3.067820000      0.330172000     -1.477310000  H
  atom      -4.370360000     -0.049164000     -0.572274000  H
  atom      -5.293160000      2.192130000     -2.328800000  O
  atom      -4.829300000      2.988660000     -1.973850000  H
  atom      -5.428570000      2.328640000     -3.235170000  H
  atom      -3.818880000      2.024990000      2.187990000  O
  atom      -3.690880000      1.961360000      3.202150000  H
  atom      -4.546490000      2.751300000      2.045370000  H
  atom      -4.066610000      4.258280000     -0.900064000  O
  atom      -3.224110000      3.876870000     -0.569443000  H
  atom      -3.737450000      5.116530000     -1.322720000  H
  
  -----------------------------------------------------------------------
  Completed first pass over input file geometry.in .
  -----------------------------------------------------------------------
  
 
  Basic array size parameters: 
  | Number of species                 :        2
  | Number of atoms                   :       13
  | Max. basis fn. angular momentum   :        4
  | Max. atomic/ionic basis occupied n:        2
  | Max. number of basis fn. types    :        2
  | Max. radial fns per species/type  :        8
  | Max. logarithmic grid size        :     1301
  | Max. radial integration grid size :       73
  | Max. angular integration grid size:      302
  | Max. angular grid division number :        8
  | Radial grid for Hartree potential :     1301
  | Number of spin channels           :        1

------------------------------------------------------------
          Reading file control.in.
------------------------------------------------------------
  XC: Using RPBE gradient-corrected functionals.
  Spin treatment: No spin polarisation.
  Scalar relativistic treatment of kinetic energy: on-site free-atom approximation to ZORA.
  Charge =   0.000000E+00: Neutral system requested explicitly.
  Using non-empirical van der Waals correction (Hirshfeld partitioning):
  Occupation type: Gaussian broadening, width =   0.100000E-01 eV.
  Using pulay charge density mixing.
  Pulay mixing - number of memorized iterations:   10
  Charge density mixing - mixing parameter:     0.1000
  Convergence accuracy of self-consistent charge density: 0.5000E-04
  Convergence accuracy of sum of eigenvalues: 0.5000E-02
  Convergence accuracy of total energy: 0.5000E-05
  Maximum number of s.-c. iterations  :  3000
  Kohn-Sham eigenvalues and eigenfunctions calculated by lapack diagonalisation (D&C).
  Number of empty states per atom:        8
  Threshold for basis singularities: 0.0000E+00
  Partition function in integrals calculations: rho / r^2
 Using packed matrix format           0
  Convergence accuracy of forces: 0.5000E-03
  Cleaning forces before final output.
  Hirshfeld charge analysis will be performed.
 
  Reading configuration options for species H                   .
  | Found nuclear charge :   1.0000
  | Found cutoff potl. onset [A], width [A], scale factor :    4.00000    2.00000    1.00000
  | Found cutoff specification for free atom: Cutoff potential begins at    8.00000 A.
  | Found logarithmic grid data [bohr] : 0.1000E-03 0.1000E+03 0.1012E+01
  | Threshold for basis-dependent cutoff potential is   0.100000E-03
  | Found data for basic radial integration grid :    24 points, outermost radius =    7.000 A
  | Found multiplier for basic radial grid :   2
  | Found angular grid specification: user-specified.
  | Specified grid contains     4 separate shells.
  | Check grid settings after all constraints further below.
  | Found l_max for Hartree potential  :   4
  | Found free-atom valence shell :  1 s   1.000
  | No ionic wave fns used. Skipping ion_occ.
  | Found hydrogenic basis function :  2 s   2.100
  | Found hydrogenic basis function :  2 p   3.500
  | Found hydrogenic basis function :  1 s   0.850
  | Found hydrogenic basis function :  2 p   3.700
  | Found hydrogenic basis function :  2 s   1.200
  | Found hydrogenic basis function :  3 d   7.000
  Species H                   : Missing cutoff potential type.
  Defaulting to exp(1/x)/(1-x)^2 type cutoff potential.
  Species H : On-site basis accuracy parameter (for Gram-Schmidt orthonormalisation) not specified.
  Using default value basis_acc =  0.1000000E-03.
  Species H                   : Using default innermost maximum threshold i_radial=  2 for radial functions.
  Species H                   : Basic radial grid will be enhanced according to radial_multiplier =   2, to contain    49 grid points.
 
  Reading configuration options for species O                   .
  | Found nuclear charge :   8.0000
  | Found atomic mass :    15.9994000000000      amu
  | Found l_max for Hartree potential  :   4
  | Found cutoff potl. onset [A], width [A], scale factor :    4.00000    2.00000    1.00000
  | Found cutoff specification for free atom: Cutoff potential begins at    8.00000 A.
  | Threshold for basis-dependent cutoff potential is   0.100000E-03
  | Found logarithmic grid data [bohr] : 0.1000E-03 0.1000E+03 0.1012E+01
  | Found data for basic radial integration grid :    36 points, outermost radius =    7.000 A
  | Found multiplier for basic radial grid :   2
  | Found angular grid specification: user-specified.
  | Specified grid contains     4 separate shells.
  | Check grid settings after all constraints further below.
  | Found free-atom valence shell :  2 s   2.000
  | Found free-atom valence shell :  2 p   4.000
  | No ionic wave fns used. Skipping ion_occ.
  | No ionic wave fns used. Skipping ion_occ.
  | Found hydrogenic basis function :  2 p   1.800
  | Found hydrogenic basis function :  3 d   7.600
  | Found hydrogenic basis function :  3 s   6.400
  | Found hydrogenic basis function :  4 f  11.600
  | Found hydrogenic basis function :  3 p   6.200
  | Found hydrogenic basis function :  3 d   5.600
  | Found hydrogenic basis function :  5 g  17.600
  | Found hydrogenic basis function :  1 s   0.750
  Species O                   : Missing cutoff potential type.
  Defaulting to exp(1/x)/(1-x)^2 type cutoff potential.
  Species O : On-site basis accuracy parameter (for Gram-Schmidt orthonormalisation) not specified.
  Using default value basis_acc =  0.1000000E-03.
  Species O                   : Using default innermost maximum threshold i_radial=  2 for radial functions.
  Species O                   : Basic radial grid will be enhanced according to radial_multiplier =   2, to contain    73 grid points.
 
  Finished reading input file 'control.in'. Consistency checks are next.
 
  Target number of points in a grid batch is not set. Defaulting to  100
  Method for grid partitioning is not set. Defaulting to parallel hash+maxmin partitioning.
  Batch size limit is not set. Defaulting to    200
  By default, will store active basis functions for each batch.
  If in need of memory, prune_basis_once .false. can be used to disable this option.
  communication_type for Hartree potential was not specified.
  Defaulting to calc_hartree .
  Pulay mixer: Number of initial linear mixing iterations not set.
  Defaulting to    0 iterations.
  Work space size for distributed Hartree potential not set.
  Defaulting to   0.200000E+03 MB.
  Algorithm-dependent basis array size parameters:
  | n_max_pulay                         :       10
  Geometry relaxation not requested: no relaxation will be performed.
  Handling of forces: Unphysical translation and rotation will be removed from forces.
  No accuracy limit for integral partition fn. given. Defaulting to 0.1000E-14.
  No threshold value for u(r) in integrations given. Defaulting to 0.1000E-05.
  No accuracy for occupation numbers given. Defaulting to 0.1000E-07.
  No threshold value for occupation numbers given. Defaulting to 0.0000E+00.
  No accuracy for fermi level given. Defaulting to 0.1000E-19.
  Maximum # of iterations to find E_F not set. Defaulting to  200.
  Will not use alltoall communication since running on < 1024 CPUs.
  Partitioning for Hartree potential was not defined. Using partition_type for integrals.
  | Reporting present value of keyword multip_moments_threshold  :       0.10000000E-09
  | This value may affect high angular momentum components of the Hartree potential in periodic systems.
  No q(lm)/r^(l+1) cutoff set for long-range Hartree potential.
  | Using default value of  0.100000E-09 .
  | Verify using the multipole_threshold keyword.
  Defaulting to new monopole extrapolation.
  Density update method: Loop over occupied states selected for charge density update.
------------------------------------------------------------


------------------------------------------------------------
          Reading geometry description geometry.in.
------------------------------------------------------------
  Input structure read successfully.
  The structure contains       13 atoms,  and a total of         41.000 electrons.

  Input geometry:
  | No unit cell requested.
  | Atomic structure:
  |       Atom                x [A]            y [A]            z [A]
  |    1: Species O             -4.053030         0.065001        -1.525160
  |    2: Species H             -4.566710         0.974813        -1.912820
  |    3: Species H             -3.067820         0.330172        -1.477310
  |    4: Species H             -4.370360        -0.049164        -0.572274
  |    5: Species O             -5.293160         2.192130        -2.328800
  |    6: Species H             -4.829300         2.988660        -1.973850
  |    7: Species H             -5.428570         2.328640        -3.235170
  |    8: Species O             -3.818880         2.024990         2.187990
  |    9: Species H             -3.690880         1.961360         3.202150
  |   10: Species H             -4.546490         2.751300         2.045370
  |   11: Species O             -4.066610         4.258280        -0.900064
  |   12: Species H             -3.224110         3.876870        -0.569443
  |   13: Species H             -3.737450         5.116530        -1.322720
  |

  | The smallest distance between any two atoms is         0.92654057 AA.
  |
  | The first atom of this pair is atom number                      5 .
  | The second atom of this pair is atom number                     7 .

  Structure-dependent array size parameters: 
  | Maximum number of distinct radial functions  :       18
  | Maximum number of basis functions            :      291
  | Number of Kohn-Sham states (occupied + empty):       73
------------------------------------------------------------

------------------------------------------------------------
          Preparing all fixed parts of the calculation.
------------------------------------------------------------
  Determining machine precision:
    2.225073858507201E-308
  Setting up grids for atomic and cluster calculations.

  Creating wave function, potential, and density for free atoms.

  Species: H

  List of occupied orbitals and eigenvalues:
    n    l              occ      energy [Ha]    energy [eV]
    1    0           1.0000        -0.241408        -6.5691


  Species: O

  List of occupied orbitals and eigenvalues:
    n    l              occ      energy [Ha]    energy [eV]
    1    0           2.0000       -18.944147      -515.4965
    2    0           2.0000        -0.883529       -24.0421
    2    1           4.0000        -0.330176        -8.9845

  Creating fixed part of basis set: Ionic, confined, hydrogenic.
 
  H                    hydrogenic:
 
  List of hydrogenic basis orbitals: 
    n    l      effective z      eigenvalue [eV]  inner max. [A]     outer max. [A]     outer radius [A]   
    2    0         2.100000       -14.9965           0.193241           1.317192           5.372934
    2    1         3.500000       -41.6672           0.602363           0.602363           4.056010
    1    0         0.850000        -9.8292           0.624864           0.624864           5.372934
    2    1         3.700000       -46.5653           0.573616           0.573616           3.909951
    2    0         1.200000        -4.5995           0.334977           2.228160           5.505921
    3    2         7.000000       -74.0753           0.680692           0.680692           3.769152
 
 
  O                    hydrogenic:
 
  List of hydrogenic basis orbitals: 
    n    l      effective z      eigenvalue [eV]  inner max. [A]     outer max. [A]     outer radius [A]   
    2    1         1.800000       -11.0118           1.178546           1.178546           5.432516
    3    2         7.600000       -87.3182           0.624117           0.624117           3.541422
    3    0         6.400000       -61.9209           0.061166           1.081887           4.306510
    4    3        11.600000      -114.4238           0.731621           0.731621           3.584982
    3    1         6.200000       -58.1113           0.255677           1.030255           4.306510
    3    2         5.600000       -47.4081           0.847222           0.847222           4.413102
    5    4        17.600000      -168.5799           0.749730           0.749730           3.372413
    1    0         0.750000        -7.6499           0.705275           0.705275           5.366508
 

  Adding cutoff potential to free-atom effective potential.
  Creating atomic-like basis functions for current effective potential.

  Species H                   :

  List of atomic basis orbitals and eigenvalues:
    n    l      energy [Ha]    energy [eV]    outer radius [A]
    1    0        -0.241374        -6.5681       5.372934


  Species O                   :

  List of atomic basis orbitals and eigenvalues:
    n    l      energy [Ha]    energy [eV]    outer radius [A]
    1    0       -18.944147      -515.4965       1.415745
    2    0        -0.883529       -24.0421       5.048305
    2    1        -0.330173        -8.9845       5.301302

  Assembling full basis from fixed parts.
  | Species H :   atomic orbital   1 s accepted.
  | Species H :    hydro orbital   2 s accepted.
  | Species H :    hydro orbital   1 s accepted.
  | Species H :    hydro orbital   2 s accepted.
  | Species H :    hydro orbital   2 p accepted.
  | Species H :    hydro orbital   2 p accepted.
  | Species H :    hydro orbital   3 d accepted.
  | Species O :   atomic orbital   1 s accepted.
  | Species O :    hydro orbital   3 s accepted.
  | Species O :   atomic orbital   2 s accepted.
  | Species O :    hydro orbital   1 s accepted.
  | Species O :    hydro orbital   3 p accepted.
  | Species O :   atomic orbital   2 p accepted.
  | Species O :    hydro orbital   2 p accepted.
  | Species O :    hydro orbital   3 d accepted.
  | Species O :    hydro orbital   3 d accepted.
  | Species O :    hydro orbital   4 f accepted.
  | Species O :    hydro orbital   5 g accepted.
 
  Basis size parameters after reduction:
  | Total number of radial functions:       18
  | Total number of basis functions :      291
 
  Testing on-site integration grid accuracy.
  |  Species  Function  <phi|h_atom|phi> (log., in eV)  <phi|h_atom|phi> (rad., in eV)
           1        1                 -6.5683835025                 -6.5684759159
           1        2                 13.3711789951                 13.3708738703
           1        3                 23.6590910787                 23.6532055418
           1        4                 16.2963827186                 16.1870710655 ***
           1        5                 28.7627214838                 28.7627215090
           1        6                 59.5965249172                 59.5965950857
           1        7                 60.2220506392                 60.2220503827
           2        8               -515.4964576505               -515.4964530710
           2        9                 15.3030791347                 15.3030722972
           2       10                -21.7296094581                -21.7296135470
           2       11                 14.2969371730                 14.2969701621
           2       12                 21.0679693190                 21.0679697493
           2       13                 -2.3833606469                 -2.3833613176
           2       14                 13.7067136422                 13.7066766629
           2       15                 45.8013116808                 45.8013116965
           2       16                 52.2309815402                 52.2309831494
           2       17                 85.4120732416                 85.4120732763
           2       18                142.1019167745                142.1019167817
 * Note: Onsite integrals marked "***" above are less accurate than
 * onsite_accuracy_threshold =    0.03000 eV. Usually, this is harmless.
 * When in doubt, tighten the "radial" and/or "radial_multiplier" flags to check.

  Preparing densities etc. for the partition functions (integrals / Hartree potential).

  Preparations completed.
  max(cpu_time)          :      0.169 s.
  Wall clock time (cpu1) :      0.483 s.
------------------------------------------------------------

------------------------------------------------------------
          Begin self-consistency loop: Initialization.

          Date     :  20150727, Time     :  124844.676
------------------------------------------------------------

  Initializing index lists of integration centers etc. from given atomic structure:
  | Number of centers in hartree potential         :        13
  | Number of centers in hartree multipole         :        13
  | Number of centers in electron density summation:        13
  | Number of centers in basis integrals           :        13
  | Number of centers in integrals                 :        13
  Partitioning the integration grid into batches with parallel hashing+maxmin method.
  | Number of batches:     1749
  | Maximal batch size:     174
  | Minimal batch size:      53
  | Average batch size:      96.605
  | Standard deviation of batch sizes:      31.135

  Integration load balanced across     8 MPI tasks.
  Work distribution over tasks is as follows:
  Task     0 has      21147 integration points.
  Task     1 has      21073 integration points.
  Task     2 has      21120 integration points.
  Task     3 has      21096 integration points.
  Task     4 has      21117 integration points.
  Task     5 has      21099 integration points.
  Task     6 has      21148 integration points.
  Task     7 has      21162 integration points.
  Initializing partition tables, free-atom densities, potentials, etc. across the integration grid (initialize_grid_storage).
  | Net number of integration points:   168962
  | of which are non-zero points    :   168434
  Obtaining max. number of non-zero basis functions in each batch (get_n_compute_maxes).
  | Maximal number of non-zero basis functions:      289 in task     0
  | Maximal number of non-zero basis functions:      288 in task     1
  | Maximal number of non-zero basis functions:      288 in task     2
  | Maximal number of non-zero basis functions:      289 in task     3
  | Maximal number of non-zero basis functions:      289 in task     4
  | Maximal number of non-zero basis functions:      288 in task     5
  | Maximal number of non-zero basis functions:      288 in task     6
  | Maximal number of non-zero basis functions:      289 in task     7
  Integrating Hamiltonian matrix: batch-based integration.
  Time summed over all CPUs for integration: real work        5.008 s, elapsed        5.086 s
  Integrating overlap matrix.
  Time summed over all CPUs for integration: real work        2.651 s, elapsed        2.700 s

  Updating Kohn-Sham eigenvalues, eigenvectors, occupation numbers, and Fermi level.
  Solving generalized eigenproblem
  Updating Kohn-Sham eigenvalues and eigenfunctions.
  Transforming overlap matrix and checking for singularities.
  Overlap matrix is nonsingular:
  | Lowest eigenvalue:  0.301750E-03
  Solving real generalised eigenvalue problem by standard LAPACK (fast)
  Determining occupation numbers for Kohn-Sham eigenstates.
  | Chemical potential (Fermi level) in eV                 : -.27545408E+01
  | Error in electron count due to remaining E_F inaccuracy: -.47656812E-09
  | Maximum occupation number of highest empty state:  0.00E+00

  Writing Kohn-Sham eigenvalues.

  State    Occupation    Eigenvalue [Ha]    Eigenvalue [eV]
      1       2.00000         -19.064960         -518.78395
      2       2.00000         -19.064884         -518.78189
      3       2.00000         -19.042865         -518.18272
      4       2.00000         -19.028691         -517.79701
      5       2.00000          -1.127952          -30.69313
      6       2.00000          -1.113023          -30.28691
      7       2.00000          -1.086650          -29.56924
      8       2.00000          -1.060078          -28.84619
      9       2.00000          -0.653757          -17.78964
     10       2.00000          -0.627489          -17.07485
     11       2.00000          -0.620495          -16.88453
     12       2.00000          -0.606054          -16.49157
     13       2.00000          -0.590407          -16.06580
     14       2.00000          -0.528981          -14.39430
     15       2.00000          -0.508274          -13.83083
     16       2.00000          -0.488275          -13.28664
     17       2.00000          -0.486846          -13.24776
     18       2.00000          -0.452784          -12.32088
     19       2.00000          -0.433605          -11.79900
     20       2.00000          -0.417452          -11.35944
     21       1.00000          -0.101228           -2.75454
     22       0.00000          -0.071678           -1.95046
     23       0.00000          -0.066448           -1.80814
     24       0.00000          -0.039054           -1.06271
     25       0.00000          -0.020861           -0.56765
     26       0.00000          -0.012236           -0.33296
     27       0.00000           0.002115            0.05755
     28       0.00000           0.039032            1.06212
     29       0.00000           0.046953            1.27765
     30       0.00000           0.070639            1.92218
     31       0.00000           0.075163            2.04529
     32       0.00000           0.084662            2.30376
     33       0.00000           0.089679            2.44029
     34       0.00000           0.098477            2.67970
     35       0.00000           0.108452            2.95112
     36       0.00000           0.110600            3.00959
     37       0.00000           0.116131            3.16008
     38       0.00000           0.125267            3.40870
     39       0.00000           0.134650            3.66402
     40       0.00000           0.142361            3.87383
     41       0.00000           0.160322            4.36257
     42       0.00000           0.173263            4.71472
     43       0.00000           0.183657            4.99756
     44       0.00000           0.217838            5.92768
     45       0.00000           0.235472            6.40753
     46       0.00000           0.244487            6.65284
     47       0.00000           0.257457            7.00577
     48       0.00000           0.263638            7.17394
     49       0.00000           0.276983            7.53709
     50       0.00000           0.296246            8.06127
     51       0.00000           0.327443            8.91018
     52       0.00000           0.347116            9.44551
     53       0.00000           0.354494            9.64628
     54       0.00000           0.363676            9.89614
     55       0.00000           0.376745           10.25175
     56       0.00000           0.391241           10.64621
     57       0.00000           0.396532           10.79020
     58       0.00000           0.415238           11.29921
     59       0.00000           0.435064           11.83870
     60       0.00000           0.444083           12.08412
     61       0.00000           0.453384           12.33720
     62       0.00000           0.465093           12.65582
     63       0.00000           0.483604           13.15953
     64       0.00000           0.511195           13.91033
     65       0.00000           0.520251           14.15676
     66       0.00000           0.542560           14.76381
     67       0.00000           0.551324           15.00229
     68       0.00000           0.582840           15.85989
     69       0.00000           0.621966           16.92457
     70       0.00000           0.671724           18.27854
     71       0.00000           0.686067           18.66884
     72       0.00000           0.715968           19.48248
     73       0.00000           0.744094           20.24783

  Highest occupied state (VBM) at    -11.35943675 eV
  | Occupation number:      2.00000000

  Lowest unoccupied state (CBM) at    -2.75454081 eV
  | Occupation number:      1.00000000

  Overall HOMO-LUMO gap:      8.60489593 eV.
  Calculating total energy contributions from superposition of free atom densities.

  Total energy components:
  | Sum of eigenvalues            :        -174.10827139 Ha       -4737.72711733 eV
  | XC energy correction          :         -36.78911690 Ha       -1001.08280537 eV
  | XC potential correction       :          47.01387685 Ha        1279.31267968 eV
  | Free-atom electrostatic energy:        -143.02806061 Ha       -3891.99155157 eV
  | Hartree energy correction     :           0.00000000 Ha           0.00000000 eV
  | van der Waals energy corr.    :           0.00000000 Ha           0.00000000 eV
  | Entropy correction            :          -0.00010367 Ha          -0.00282095 eV
  | ---------------------------
  | Total energy                  :        -306.91157205 Ha       -8351.48879460 eV
  | Total energy, T -> 0          :        -306.91167572 Ha       -8351.49161554 eV  <-- do not rely on this value for anything but (periodic) metals
  | Electronic free energy        :        -306.91177939 Ha       -8351.49443649 eV

  Derived energy quantities:
  | Kinetic energy                :         303.96586738 Ha        8271.33209214 eV
  | Electrostatic energy          :        -574.08832253 Ha      -15621.73808137 eV
  | Energy correction for multipole
  | error in Hartree potential    :           0.00000000 Ha           0.00000000 eV
  | Sum of eigenvalues per atom                           :        -364.44054749 eV
  | Total energy (T->0) per atom                          :        -642.42243196 eV  <-- do not rely on this value for anything but (periodic) metals
  | Electronic free energy per atom                       :        -642.42264896 eV
  Initialize hartree_potential_storage
  Max. number of atoms included in rho_multipole:           13

  End scf initialization - timings             :  max(cpu_time)    wall_clock(cpu1)
  | Time for scf. initialization               :        1.410 s           1.410 s
  | Boundary condition initialization          :        0.001 s           0.000 s
  | Integration                                :        0.976 s           0.976 s
  | Solution of K.-S. eqns.                    :        0.135 s           0.136 s
  | Grid partitioning                          :        0.128 s           0.129 s
  | Preloading free-atom quantities on grid    :        0.014 s           0.013 s
  | Free-atom superposition energy             :        0.052 s           0.051 s
  | Total energy evaluation                    :        0.000 s           0.000 s
------------------------------------------------------------

------------------------------------------------------------
          Begin self-consistency iteration #    1

  Date     :  20150727, Time     :  124846.086
------------------------------------------------------------
  Evaluating new KS density.
  Integration grid: deviation in total charge (<rho> - N_e) =  -4.765397E-10
  Pulay mixing of updated and previous charge densities.

  Evaluating partitioned Hartree potential by multipole expansion.
  | Analytical far-field extrapolation by fixed multipoles:
  | Hartree multipole sum: apparent total charge =  -0.735435E-06
  Summing up the Hartree potential.
  Time summed over all CPUs for potential: real work        1.920 s, elapsed        1.935 s
  | RMS charge density error from multipole expansion :   0.145826E-02

  Integrating Hamiltonian matrix: batch-based integration.
  Time summed over all CPUs for integration: real work        5.003 s, elapsed        5.079 s

  Updating Kohn-Sham eigenvalues, eigenvectors, occupation numbers, and Fermi level.
  Solving generalized eigenproblem
  Updating Kohn-Sham eigenvalues and eigenfunctions.
  Solving real generalised eigenvalue problem by standard LAPACK (fast)
  Determining occupation numbers for Kohn-Sham eigenstates.
  | Chemical potential (Fermi level) in eV                 : -.25671291E+01
  | Error in electron count due to remaining E_F inaccuracy: -.29785951E-10
  | Maximum occupation number of highest empty state:  0.00E+00

  Writing Kohn-Sham eigenvalues.

  State    Occupation    Eigenvalue [Ha]    Eigenvalue [eV]
      1       2.00000         -19.016476         -517.46464
      2       2.00000         -18.994014         -516.85342
      3       2.00000         -18.968670         -516.16378
      4       2.00000         -18.949272         -515.63592
      5       2.00000          -1.102436          -29.99880
      6       2.00000          -1.083228          -29.47614
      7       2.00000          -1.049601          -28.56109
      8       2.00000          -1.018728          -27.72101
      9       2.00000          -0.624037          -16.98092
     10       2.00000          -0.609982          -16.59847
     11       2.00000          -0.600142          -16.33068
     12       2.00000          -0.574214          -15.62516
     13       2.00000          -0.555434          -15.11412
     14       2.00000          -0.498848          -13.57434
     15       2.00000          -0.473077          -12.87307
     16       2.00000          -0.461382          -12.55485
     17       2.00000          -0.447185          -12.16852
     18       2.00000          -0.418839          -11.39720
     19       2.00000          -0.395122          -10.75181
     20       2.00000          -0.374485          -10.19025
     21       1.00000          -0.094340           -2.56713
     22       0.00000          -0.063779           -1.73552
     23       0.00000          -0.058283           -1.58595
     24       0.00000          -0.033069           -0.89985
     25       0.00000          -0.015471           -0.42098
     26       0.00000          -0.001993           -0.05423
     27       0.00000           0.010060            0.27374
     28       0.00000           0.047043            1.28010
     29       0.00000           0.051701            1.40687
     30       0.00000           0.076266            2.07530
     31       0.00000           0.081190            2.20929
     32       0.00000           0.091235            2.48263
     33       0.00000           0.098848            2.68979
     34       0.00000           0.106442            2.89643
     35       0.00000           0.115214            3.13513
     36       0.00000           0.118273            3.21836
     37       0.00000           0.127403            3.46682
     38       0.00000           0.132521            3.60608
     39       0.00000           0.141802            3.85863
     40       0.00000           0.150244            4.08834
     41       0.00000           0.167709            4.56358
     42       0.00000           0.180660            4.91601
     43       0.00000           0.191493            5.21079
     44       0.00000           0.223485            6.08134
     45       0.00000           0.241391            6.56859
     46       0.00000           0.251638            6.84741
     47       0.00000           0.263433            7.16838
     48       0.00000           0.271527            7.38863
     49       0.00000           0.281970            7.67279
     50       0.00000           0.301944            8.21631
     51       0.00000           0.334223            9.09466
     52       0.00000           0.354048            9.63412
     53       0.00000           0.361549            9.83825
     54       0.00000           0.371282           10.10311
     55       0.00000           0.383640           10.43937
     56       0.00000           0.397671           10.82118
     57       0.00000           0.403133           10.96980
     58       0.00000           0.422809           11.50522
     59       0.00000           0.443134           12.05829
     60       0.00000           0.452357           12.30926
     61       0.00000           0.460502           12.53089
     62       0.00000           0.474664           12.91626
     63       0.00000           0.490218           13.33952
     64       0.00000           0.522137           14.20808
     65       0.00000           0.531610           14.46584
     66       0.00000           0.550181           14.97118
     67       0.00000           0.561509           15.27944
     68       0.00000           0.591971           16.10836
     69       0.00000           0.631780           17.19160
     70       0.00000           0.679532           18.49100
     71       0.00000           0.697340           18.97560
     72       0.00000           0.726811           19.77752
     73       0.00000           0.751957           20.46178

  Highest occupied state (VBM) at    -10.19025108 eV
  | Occupation number:      2.00000000

  Lowest unoccupied state (CBM) at    -2.56712911 eV
  | Occupation number:      1.00000000

  Overall HOMO-LUMO gap:      7.62312197 eV.

  Total energy components:
  | Sum of eigenvalues            :        -172.52468202 Ha       -4694.63545808 eV
  | XC energy correction          :         -36.96096604 Ha       -1005.75905846 eV
  | XC potential correction       :          47.23851812 Ha        1285.42547991 eV
  | Free-atom electrostatic energy:        -143.02806061 Ha       -3891.99155157 eV
  | Hartree energy correction     :          -1.54182231 Ha         -41.95511979 eV
  | van der Waals energy corr.    :           0.00000000 Ha           0.00000000 eV
  | Entropy correction            :          -0.00010367 Ha          -0.00282095 eV
  | ---------------------------
  | Total energy                  :        -306.81701286 Ha       -8348.91570799 eV
  | Total energy, T -> 0          :        -306.81711652 Ha       -8348.91852894 eV  <-- do not rely on this value for anything but (periodic) metals
  | Electronic free energy        :        -306.81722019 Ha       -8348.92134989 eV

  Derived energy quantities:
  | Kinetic energy                :         305.01372531 Ha        8299.84575729 eV
  | Electrostatic energy          :        -574.86977213 Ha      -15643.00240681 eV
  | Energy correction for multipole
  | error in Hartree potential    :           0.00030377 Ha           0.00826592 eV
  | Sum of eigenvalues per atom                           :        -361.12580447 eV
  | Total energy (T->0) per atom                          :        -642.22450223 eV  <-- do not rely on this value for anything but (periodic) metals
  | Electronic free energy per atom                       :        -642.22471922 eV

  Self-consistency convergence accuracy:
  | Change of charge density      : 0.5592E+00
  | Change of sum of eigenvalues  : 0.4309E+02 eV
  | Change of total energy        : 0.2573E+01 eV

  End self-consistency iteration #     1       :  max(cpu_time)    wall_clock(cpu1)
  | Time for this iteration                    :        1.381 s           1.381 s
  | Charge density update                      :        0.455 s           0.454 s
  | Density mixing                             :        0.003 s           0.003 s
  | Hartree multipole update                   :        0.005 s           0.005 s
  | Hartree multipole summation                :        0.242 s           0.243 s
  | Integration                                :        0.637 s           0.636 s
  | Solution of K.-S. eqns.                    :        0.035 s           0.035 s
  | Total energy evaluation                    :        0.000 s           0.000 s
------------------------------------------------------------

------------------------------------------------------------
          Begin self-consistency iteration #    2

  Date     :  20150727, Time     :  124847.468
------------------------------------------------------------
  Evaluating new KS density.
  Integration grid: deviation in total charge (<rho> - N_e) =  -2.978595E-11
  Pulay mixing of updated and previous charge densities.

  Evaluating partitioned Hartree potential by multipole expansion.
  | Analytical far-field extrapolation by fixed multipoles:
  | Hartree multipole sum: apparent total charge =  -0.270647E-05
  Summing up the Hartree potential.
  Time summed over all CPUs for potential: real work        1.918 s, elapsed        1.933 s
  | RMS charge density error from multipole expansion :   0.582185E-02

  Integrating Hamiltonian matrix: batch-based integration.
  Time summed over all CPUs for integration: real work        4.986 s, elapsed        5.053 s

  Updating Kohn-Sham eigenvalues, eigenvectors, occupation numbers, and Fermi level.
  Solving generalized eigenproblem
  Updating Kohn-Sham eigenvalues and eigenfunctions.
  Solving real generalised eigenvalue problem by standard LAPACK (fast)
  Determining occupation numbers for Kohn-Sham eigenstates.
  | Chemical potential (Fermi level) in eV                 : -.21413270E+01
  | Error in electron count due to remaining E_F inaccuracy: 0.00000000E+00
  | Maximum occupation number of highest empty state:  0.00E+00

  Highest occupied state (VBM) at     -2.14132701 eV
  | Occupation number:      1.00000000

  Lowest unoccupied state (CBM) at    -2.14132701 eV
  | Occupation number:      1.00000000

  Overall HOMO-LUMO gap:      0.00000000 eV.

  Total energy components:
  | Sum of eigenvalues            :        -168.83859590 Ha       -4594.33195143 eV
  | XC energy correction          :         -37.38096597 Ha       -1017.18783787 eV
  | XC potential correction       :          47.78632986 Ha        1300.33219571 eV
  | Free-atom electrostatic energy:        -143.02806061 Ha       -3891.99155157 eV
  | Hartree energy correction     :          -5.25247390 Ha        -142.92708683 eV
  | van der Waals energy corr.    :           0.00000000 Ha           0.00000000 eV
  | Entropy correction            :          -0.00010367 Ha          -0.00282095 eV
  | ---------------------------
  | Total energy                  :        -306.71376651 Ha       -8346.10623198 eV
  | Total energy, T -> 0          :        -306.71387018 Ha       -8346.10905293 eV  <-- do not rely on this value for anything but (periodic) metals
  | Electronic free energy        :        -306.71397385 Ha       -8346.11187388 eV

  Derived energy quantities:
  | Kinetic energy                :         307.12844377 Ha        8357.39017421 eV
  | Electrostatic energy          :        -576.46124431 Ha      -15686.30856832 eV
  | Energy correction for multipole
  | error in Hartree potential    :           0.00056230 Ha           0.01530098 eV
  | Sum of eigenvalues per atom                           :        -353.41015011 eV
  | Total energy (T->0) per atom                          :        -642.00838869 eV  <-- do not rely on this value for anything but (periodic) metals
  | Electronic free energy per atom                       :        -642.00860568 eV

  Self-consistency convergence accuracy:
  | Change of charge density      : 0.4242E+00
  | Change of sum of eigenvalues  : 0.1003E+03 eV
  | Change of total energy        : 0.2809E+01 eV

  End self-consistency iteration #     2       :  max(cpu_time)    wall_clock(cpu1)
  | Time for this iteration                    :        1.374 s           1.372 s
  | Charge density update                      :        0.452 s           0.450 s
  | Density mixing                             :        0.005 s           0.005 s
  | Hartree multipole update                   :        0.004 s           0.005 s
  | Hartree multipole summation                :        0.243 s           0.242 s
  | Integration                                :        0.633 s           0.633 s
  | Solution of K.-S. eqns.                    :        0.035 s           0.035 s
  | Total energy evaluation                    :        0.000 s           0.001 s
------------------------------------------------------------

------------------------------------------------------------
          Begin self-consistency iteration #    3

  Date     :  20150727, Time     :  124848.840
------------------------------------------------------------
  Evaluating new KS density.
  Integration grid: deviation in total charge (<rho> - N_e) =   4.263256E-14
  Pulay mixing of updated and previous charge densities.

  Evaluating partitioned Hartree potential by multipole expansion.
  | Analytical far-field extrapolation by fixed multipoles:
  | Hartree multipole sum: apparent total charge =  -0.265751E-05
  Summing up the Hartree potential.
  Time summed over all CPUs for potential: real work        1.919 s, elapsed        1.934 s
  | RMS charge density error from multipole expansion :   0.118454E-01

  Integrating Hamiltonian matrix: batch-based integration.
  Time summed over all CPUs for integration: real work        4.995 s, elapsed        5.071 s

  Updating Kohn-Sham eigenvalues, eigenvectors, occupation numbers, and Fermi level.
  Solving generalized eigenproblem
  Updating Kohn-Sham eigenvalues and eigenfunctions.
  Solving real generalised eigenvalue problem by standard LAPACK (fast)
  Determining occupation numbers for Kohn-Sham eigenstates.
  | Chemical potential (Fermi level) in eV                 : -.20467092E+01
  | Error in electron count due to remaining E_F inaccuracy: 0.79069906E-09
  | Maximum occupation number of highest empty state:  0.00E+00

  Highest occupied state (VBM) at     -2.04670922 eV
  | Occupation number:      1.00000000

  Lowest unoccupied state (CBM) at    -1.20432665 eV
  | Occupation number:      0.00000000

  Overall HOMO-LUMO gap:      0.84238257 eV.

  Total energy components:
  | Sum of eigenvalues            :        -169.03278467 Ha       -4599.61609674 eV
  | XC energy correction          :         -37.37747516 Ha       -1017.09284824 eV
  | XC potential correction       :          47.77542189 Ha        1300.03537474 eV
  | Free-atom electrostatic energy:        -143.02806061 Ha       -3891.99155157 eV
  | Hartree energy correction     :          -5.04958598 Ha        -137.40622580 eV
  | van der Waals energy corr.    :           0.00000000 Ha           0.00000000 eV
  | Entropy correction            :          -0.00010367 Ha          -0.00282095 eV
  | ---------------------------
  | Total energy                  :        -306.71248453 Ha       -8346.07134761 eV
  | Total energy, T -> 0          :        -306.71258820 Ha       -8346.07416856 eV  <-- do not rely on this value for anything but (periodic) metals
  | Electronic free energy        :        -306.71269187 Ha       -8346.07698951 eV

  Derived energy quantities:
  | Kinetic energy                :         305.81029290 Ha        8321.52146410 eV
  | Electrostatic energy          :        -575.14530227 Ha      -15650.49996347 eV
  | Energy correction for multipole
  | error in Hartree potential    :          -0.00209698 Ha          -0.05706183 eV
  | Sum of eigenvalues per atom                           :        -353.81662283 eV
  | Total energy (T->0) per atom                          :        -642.00570527 eV  <-- do not rely on this value for anything but (periodic) metals
  | Electronic free energy per atom                       :        -642.00592227 eV

  Self-consistency convergence accuracy:
  | Change of charge density      : 0.2136E+00
  | Change of sum of eigenvalues  : -.5284E+01 eV
  | Change of total energy        : 0.3488E-01 eV

  End self-consistency iteration #     3       :  max(cpu_time)    wall_clock(cpu1)
  | Time for this iteration                    :        1.374 s           1.374 s
  | Charge density update                      :        0.449 s           0.449 s
  | Density mixing                             :        0.006 s           0.006 s
  | Hartree multipole update                   :        0.004 s           0.004 s
  | Hartree multipole summation                :        0.243 s           0.243 s
  | Integration                                :        0.635 s           0.635 s
  | Solution of K.-S. eqns.                    :        0.036 s           0.035 s
  | Total energy evaluation                    :        0.001 s           0.001 s
------------------------------------------------------------

------------------------------------------------------------
          Begin self-consistency iteration #    4

  Date     :  20150727, Time     :  124850.214
------------------------------------------------------------
  Evaluating new KS density.
  Integration grid: deviation in total charge (<rho> - N_e) =   7.906849E-10
  Pulay mixing of updated and previous charge densities.

  Evaluating partitioned Hartree potential by multipole expansion.
  | Analytical far-field extrapolation by fixed multipoles:
  | Hartree multipole sum: apparent total charge =  -0.311799E-05
  Summing up the Hartree potential.
  Time summed over all CPUs for potential: real work        1.918 s, elapsed        1.933 s
  | RMS charge density error from multipole expansion :   0.148366E-01

  Integrating Hamiltonian matrix: batch-based integration.
  Time summed over all CPUs for integration: real work        4.980 s, elapsed        5.055 s

  Updating Kohn-Sham eigenvalues, eigenvectors, occupation numbers, and Fermi level.
  Solving generalized eigenproblem
  Updating Kohn-Sham eigenvalues and eigenfunctions.
  Solving real generalised eigenvalue problem by standard LAPACK (fast)
  Determining occupation numbers for Kohn-Sham eigenstates.
  | Chemical potential (Fermi level) in eV                 : -.19457747E+01
  | Error in electron count due to remaining E_F inaccuracy: 0.42632564E-13
  | Maximum occupation number of highest empty state:  0.00E+00

  Highest occupied state (VBM) at     -1.94577465 eV
  | Occupation number:      1.00000000

  Lowest unoccupied state (CBM) at    -1.09498226 eV
  | Occupation number:      0.00000000

  Overall HOMO-LUMO gap:      0.85079239 eV.

  Total energy components:
  | Sum of eigenvalues            :        -168.22294783 Ha       -4577.57931519 eV
  | XC energy correction          :         -37.48773072 Ha       -1020.09305466 eV
  | XC potential correction       :          47.91737986 Ha        1303.89824772 eV
  | Free-atom electrostatic energy:        -143.02806061 Ha       -3891.99155157 eV
  | Hartree energy correction     :          -5.88696768 Ha        -160.19254116 eV
  | van der Waals energy corr.    :           0.00000000 Ha           0.00000000 eV
  | Entropy correction            :          -0.00010367 Ha          -0.00282095 eV
  | ---------------------------
  | Total energy                  :        -306.70832698 Ha       -8345.95821486 eV
  | Total energy, T -> 0          :        -306.70843065 Ha       -8345.96103581 eV  <-- do not rely on this value for anything but (periodic) metals
  | Electronic free energy        :        -306.70853432 Ha       -8345.96385676 eV

  Derived energy quantities:
  | Kinetic energy                :         305.87726574 Ha        8323.34388784 eV
  | Electrostatic energy          :        -575.09786200 Ha      -15649.20904804 eV
  | Energy correction for multipole
  | error in Hartree potential    :          -0.00295739 Ha          -0.08047460 eV
  | Sum of eigenvalues per atom                           :        -352.12148578 eV
  | Total energy (T->0) per atom                          :        -641.99700275 eV  <-- do not rely on this value for anything but (periodic) metals
  | Electronic free energy per atom                       :        -641.99721975 eV

  Self-consistency convergence accuracy:
  | Change of charge density      : 0.9960E-01
  | Change of sum of eigenvalues  : 0.2204E+02 eV
  | Change of total energy        : 0.1131E+00 eV

  End self-consistency iteration #     4       :  max(cpu_time)    wall_clock(cpu1)
  | Time for this iteration                    :        1.372 s           1.372 s
  | Charge density update                      :        0.448 s           0.448 s
  | Density mixing                             :        0.007 s           0.007 s
  | Hartree multipole update                   :        0.005 s           0.005 s
  | Hartree multipole summation                :        0.242 s           0.242 s
  | Integration                                :        0.633 s           0.633 s
  | Solution of K.-S. eqns.                    :        0.036 s           0.036 s
  | Total energy evaluation                    :        0.000 s           0.001 s
------------------------------------------------------------

------------------------------------------------------------
          Begin self-consistency iteration #    5

  Date     :  20150727, Time     :  124851.587
------------------------------------------------------------
  Evaluating new KS density.
  Integration grid: deviation in total charge (<rho> - N_e) =   4.263256E-14
  Pulay mixing of updated and previous charge densities.

  Evaluating partitioned Hartree potential by multipole expansion.
  | Analytical far-field extrapolation by fixed multipoles:
  | Hartree multipole sum: apparent total charge =  -0.312374E-05
  Summing up the Hartree potential.
  Time summed over all CPUs for potential: real work        1.918 s, elapsed        1.933 s
  | RMS charge density error from multipole expansion :   0.155276E-01

  Integrating Hamiltonian matrix: batch-based integration.
  Time summed over all CPUs for integration: real work        4.978 s, elapsed        5.048 s

  Updating Kohn-Sham eigenvalues, eigenvectors, occupation numbers, and Fermi level.
  Solving generalized eigenproblem
  Updating Kohn-Sham eigenvalues and eigenfunctions.
  Solving real generalised eigenvalue problem by standard LAPACK (fast)
  Determining occupation numbers for Kohn-Sham eigenstates.
  | Chemical potential (Fermi level) in eV                 : -.19774231E+01
  | Error in electron count due to remaining E_F inaccuracy: 0.73974604E-10
  | Maximum occupation number of highest empty state:  0.00E+00

  Highest occupied state (VBM) at     -1.97742314 eV
  | Occupation number:      1.00000000

  Lowest unoccupied state (CBM) at    -1.09180652 eV
  | Occupation number:      0.00000000

  Overall HOMO-LUMO gap:      0.88561662 eV.

  Total energy components:
  | Sum of eigenvalues            :        -168.22497156 Ha       -4577.63438353 eV
  | XC energy correction          :         -37.49189744 Ha       -1020.20643692 eV
  | XC potential correction       :          47.92204757 Ha        1304.02526255 eV
  | Free-atom electrostatic energy:        -143.02806061 Ha       -3891.99155157 eV
  | Hartree energy correction     :          -5.88513375 Ha        -160.14263722 eV
  | van der Waals energy corr.    :           0.00000000 Ha           0.00000000 eV
  | Entropy correction            :          -0.00010367 Ha          -0.00282095 eV
  | ---------------------------
  | Total energy                  :        -306.70801578 Ha       -8345.94974669 eV
  | Total energy, T -> 0          :        -306.70811945 Ha       -8345.95256764 eV  <-- do not rely on this value for anything but (periodic) metals
  | Electronic free energy        :        -306.70822312 Ha       -8345.95538859 eV

  Derived energy quantities:
  | Kinetic energy                :         305.80618770 Ha        8321.40975603 eV
  | Electrostatic energy          :        -575.02230604 Ha      -15647.15306580 eV
  | Energy correction for multipole
  | error in Hartree potential    :          -0.00333019 Ha          -0.09061911 eV
  | Sum of eigenvalues per atom                           :        -352.12572181 eV
  | Total energy (T->0) per atom                          :        -641.99635136 eV  <-- do not rely on this value for anything but (periodic) metals
  | Electronic free energy per atom                       :        -641.99656835 eV

  Self-consistency convergence accuracy:
  | Change of charge density      : 0.3344E-01
  | Change of sum of eigenvalues  : -.5507E-01 eV
  | Change of total energy        : 0.8468E-02 eV

  End self-consistency iteration #     5       :  max(cpu_time)    wall_clock(cpu1)
  | Time for this iteration                    :        1.374 s           1.373 s
  | Charge density update                      :        0.450 s           0.449 s
  | Density mixing                             :        0.008 s           0.008 s
  | Hartree multipole update                   :        0.005 s           0.004 s
  | Hartree multipole summation                :        0.242 s           0.243 s
  | Integration                                :        0.633 s           0.632 s
  | Solution of K.-S. eqns.                    :        0.035 s           0.035 s
  | Total energy evaluation                    :        0.000 s           0.001 s
------------------------------------------------------------

------------------------------------------------------------
          Begin self-consistency iteration #    6

  Date     :  20150727, Time     :  124852.960
------------------------------------------------------------
  Evaluating new KS density.
  Integration grid: deviation in total charge (<rho> - N_e) =   7.398171E-11
  Pulay mixing of updated and previous charge densities.

  Evaluating partitioned Hartree potential by multipole expansion.
  | Analytical far-field extrapolation by fixed multipoles:
  | Hartree multipole sum: apparent total charge =  -0.310031E-05
  Summing up the Hartree potential.
  Time summed over all CPUs for potential: real work        1.918 s, elapsed        1.933 s
  | RMS charge density error from multipole expansion :   0.158431E-01

  Integrating Hamiltonian matrix: batch-based integration.
  Time summed over all CPUs for integration: real work        4.974 s, elapsed        5.051 s

  Updating Kohn-Sham eigenvalues, eigenvectors, occupation numbers, and Fermi level.
  Solving generalized eigenproblem
  Updating Kohn-Sham eigenvalues and eigenfunctions.
  Solving real generalised eigenvalue problem by standard LAPACK (fast)
  Determining occupation numbers for Kohn-Sham eigenstates.
  | Chemical potential (Fermi level) in eV                 : -.19735931E+01
  | Error in electron count due to remaining E_F inaccuracy: -.59273475E-10
  | Maximum occupation number of highest empty state:  0.00E+00

  Highest occupied state (VBM) at     -6.70236327 eV
  | Occupation number:      2.00000000

  Lowest unoccupied state (CBM) at    -1.97359310 eV
  | Occupation number:      1.00000000

  Overall HOMO-LUMO gap:      4.72877017 eV.

  Total energy components:
  | Sum of eigenvalues            :        -168.19831250 Ha       -4576.90895377 eV
  | XC energy correction          :         -37.49701241 Ha       -1020.34562236 eV
  | XC potential correction       :          47.92844693 Ha        1304.19939788 eV
  | Free-atom electrostatic energy:        -143.02806061 Ha       -3891.99155157 eV
  | Hartree energy correction     :          -5.91311098 Ha        -160.90393634 eV
  | van der Waals energy corr.    :           0.00000000 Ha           0.00000000 eV
  | Entropy correction            :          -0.00010367 Ha          -0.00282095 eV
  | ---------------------------
  | Total energy                  :        -306.70804957 Ha       -8345.95066616 eV
  | Total energy, T -> 0          :        -306.70815324 Ha       -8345.95348711 eV  <-- do not rely on this value for anything but (periodic) metals
  | Electronic free energy        :        -306.70825691 Ha       -8345.95630806 eV

  Derived energy quantities:
  | Kinetic energy                :         305.79931164 Ha        8321.22264884 eV
  | Electrostatic energy          :        -575.01034880 Ha      -15646.82769265 eV
  | Energy correction for multipole
  | error in Hartree potential    :          -0.00346609 Ha          -0.09431722 eV
  | Sum of eigenvalues per atom                           :        -352.06991952 eV
  | Total energy (T->0) per atom                          :        -641.99642209 eV  <-- do not rely on this value for anything but (periodic) metals
  | Electronic free energy per atom                       :        -641.99663908 eV

  Self-consistency convergence accuracy:
  | Change of charge density      : 0.7846E-02
  | Change of sum of eigenvalues  : 0.7254E+00 eV
  | Change of total energy        : -.9195E-03 eV

  End self-consistency iteration #     6       :  max(cpu_time)    wall_clock(cpu1)
  | Time for this iteration                    :        1.374 s           1.374 s
  | Charge density update                      :        0.448 s           0.448 s
  | Density mixing                             :        0.009 s           0.010 s
  | Hartree multipole update                   :        0.005 s           0.004 s
  | Hartree multipole summation                :        0.242 s           0.243 s
  | Integration                                :        0.633 s           0.632 s
  | Solution of K.-S. eqns.                    :        0.035 s           0.036 s
  | Total energy evaluation                    :        0.000 s           0.001 s
------------------------------------------------------------

------------------------------------------------------------
          Begin self-consistency iteration #    7

  Date     :  20150727, Time     :  124854.335
------------------------------------------------------------
  Evaluating new KS density.
  Integration grid: deviation in total charge (<rho> - N_e) =  -5.921663E-11
  Pulay mixing of updated and previous charge densities.

  Evaluating partitioned Hartree potential by multipole expansion.
  | Analytical far-field extrapolation by fixed multipoles:
  | Hartree multipole sum: apparent total charge =  -0.303708E-05
  Summing up the Hartree potential.
  Time summed over all CPUs for potential: real work        1.918 s, elapsed        1.933 s
  | RMS charge density error from multipole expansion :   0.158681E-01

  Integrating Hamiltonian matrix: batch-based integration.
  Time summed over all CPUs for integration: real work        4.974 s, elapsed        5.043 s

  Updating Kohn-Sham eigenvalues, eigenvectors, occupation numbers, and Fermi level.
  Solving generalized eigenproblem
  Updating Kohn-Sham eigenvalues and eigenfunctions.
  Solving real generalised eigenvalue problem by standard LAPACK (fast)
  Determining occupation numbers for Kohn-Sham eigenstates.
  | Chemical potential (Fermi level) in eV                 : -.19770894E+01
  | Error in electron count due to remaining E_F inaccuracy: 0.00000000E+00
  | Maximum occupation number of highest empty state:  0.00E+00

  Highest occupied state (VBM) at     -1.97708937 eV
  | Occupation number:      1.00000000

  Lowest unoccupied state (CBM) at    -1.97708937 eV
  | Occupation number:      1.00000000

  Overall HOMO-LUMO gap:      0.00000000 eV.

  Total energy components:
  | Sum of eigenvalues            :        -168.22510649 Ha       -4577.63805519 eV
  | XC energy correction          :         -37.49406536 Ha       -1020.26542888 eV
  | XC potential correction       :          47.92448603 Ha        1304.09161644 eV
  | Free-atom electrostatic energy:        -143.02806061 Ha       -3891.99155157 eV
  | Hartree energy correction     :          -5.88528226 Ha        -160.14667839 eV
  | van der Waals energy corr.    :           0.00000000 Ha           0.00000000 eV
  | Entropy correction            :          -0.00010367 Ha          -0.00282095 eV
  | ---------------------------
  | Total energy                  :        -306.70802868 Ha       -8345.95009758 eV
  | Total energy, T -> 0          :        -306.70813235 Ha       -8345.95291853 eV  <-- do not rely on this value for anything but (periodic) metals
  | Electronic free energy        :        -306.70823601 Ha       -8345.95573948 eV

  Derived energy quantities:
  | Kinetic energy                :         305.82260709 Ha        8321.85655041 eV
  | Electrostatic energy          :        -575.03657041 Ha      -15647.54121911 eV
  | Energy correction for multipole
  | error in Hartree potential    :          -0.00350764 Ha          -0.09544781 eV
  | Sum of eigenvalues per atom                           :        -352.12600425 eV
  | Total energy (T->0) per atom                          :        -641.99637835 eV  <-- do not rely on this value for anything but (periodic) metals
  | Electronic free energy per atom                       :        -641.99659534 eV

  Self-consistency convergence accuracy:
  | Change of charge density      : 0.6246E-02
  | Change of sum of eigenvalues  : -.7291E+00 eV
  | Change of total energy        : 0.5686E-03 eV

  End self-consistency iteration #     7       :  max(cpu_time)    wall_clock(cpu1)
  | Time for this iteration                    :        1.373 s           1.372 s
  | Charge density update                      :        0.447 s           0.447 s
  | Density mixing                             :        0.010 s           0.010 s
  | Hartree multipole update                   :        0.004 s           0.004 s
  | Hartree multipole summation                :        0.243 s           0.243 s
  | Integration                                :        0.631 s           0.631 s
  | Solution of K.-S. eqns.                    :        0.036 s           0.036 s
  | Total energy evaluation                    :        0.000 s           0.001 s
------------------------------------------------------------

------------------------------------------------------------
          Begin self-consistency iteration #    8

  Date     :  20150727, Time     :  124855.708
------------------------------------------------------------
  Evaluating new KS density.
  Integration grid: deviation in total charge (<rho> - N_e) =   1.421085E-14
  Pulay mixing of updated and previous charge densities.

  Evaluating partitioned Hartree potential by multipole expansion.
  | Analytical far-field extrapolation by fixed multipoles:
  | Hartree multipole sum: apparent total charge =  -0.298955E-05
  Summing up the Hartree potential.
  Time summed over all CPUs for potential: real work        1.918 s, elapsed        1.932 s
  | RMS charge density error from multipole expansion :   0.158729E-01

  Integrating Hamiltonian matrix: batch-based integration.
  Time summed over all CPUs for integration: real work        4.969 s, elapsed        5.033 s

  Updating Kohn-Sham eigenvalues, eigenvectors, occupation numbers, and Fermi level.
  Solving generalized eigenproblem
  Updating Kohn-Sham eigenvalues and eigenfunctions.
  Solving real generalised eigenvalue problem by standard LAPACK (fast)
  Determining occupation numbers for Kohn-Sham eigenstates.
  | Chemical potential (Fermi level) in eV                 : -.19891273E+01
  | Error in electron count due to remaining E_F inaccuracy: 0.00000000E+00
  | Maximum occupation number of highest empty state:  0.00E+00

  Highest occupied state (VBM) at     -1.98912734 eV
  | Occupation number:      1.00000000

  Lowest unoccupied state (CBM) at    -1.98912734 eV
  | Occupation number:      1.00000000

  Overall HOMO-LUMO gap:      0.00000000 eV.

  Total energy components:
  | Sum of eigenvalues            :        -168.26889036 Ha       -4578.82947489 eV
  | XC energy correction          :         -37.48933236 Ha       -1020.13663755 eV
  | XC potential correction       :          47.91817394 Ha        1303.91985574 eV
  | Free-atom electrostatic energy:        -143.02806061 Ha       -3891.99155157 eV
  | Hartree energy correction     :          -5.83990899 Ha        -158.91200884 eV
  | van der Waals energy corr.    :           0.00000000 Ha           0.00000000 eV
  | Entropy correction            :          -0.00010367 Ha          -0.00282095 eV
  | ---------------------------
  | Total energy                  :        -306.70801837 Ha       -8345.94981710 eV
  | Total energy, T -> 0          :        -306.70812204 Ha       -8345.95263805 eV  <-- do not rely on this value for anything but (periodic) metals
  | Electronic free energy        :        -306.70822571 Ha       -8345.95545900 eV

  Derived energy quantities:
  | Kinetic energy                :         305.83807386 Ha        8322.27742242 eV
  | Electrostatic energy          :        -575.05675986 Ha      -15648.09060197 eV
  | Energy correction for multipole
  | error in Hartree potential    :          -0.00355645 Ha          -0.09677596 eV
  | Sum of eigenvalues per atom                           :        -352.21765191 eV
  | Total energy (T->0) per atom                          :        -641.99635677 eV  <-- do not rely on this value for anything but (periodic) metals
  | Electronic free energy per atom                       :        -641.99657377 eV

  Self-consistency convergence accuracy:
  | Change of charge density      : 0.3848E-02
  | Change of sum of eigenvalues  : -.1191E+01 eV
  | Change of total energy        : 0.2805E-03 eV

  End self-consistency iteration #     8       :  max(cpu_time)    wall_clock(cpu1)
  | Time for this iteration                    :        1.374 s           1.373 s
  | Charge density update                      :        0.449 s           0.448 s
  | Density mixing                             :        0.011 s           0.011 s
  | Hartree multipole update                   :        0.005 s           0.005 s
  | Hartree multipole summation                :        0.242 s           0.242 s
  | Integration                                :        0.631 s           0.630 s
  | Solution of K.-S. eqns.                    :        0.035 s           0.036 s
  | Total energy evaluation                    :        0.000 s           0.001 s
------------------------------------------------------------

------------------------------------------------------------
          Begin self-consistency iteration #    9

  Date     :  20150727, Time     :  124857.082
------------------------------------------------------------
  Evaluating new KS density.
  Integration grid: deviation in total charge (<rho> - N_e) =  -2.131628E-14
  Pulay mixing of updated and previous charge densities.

  Evaluating partitioned Hartree potential by multipole expansion.
  | Analytical far-field extrapolation by fixed multipoles:
  | Hartree multipole sum: apparent total charge =  -0.298436E-05
  Summing up the Hartree potential.
  Time summed over all CPUs for potential: real work        1.918 s, elapsed        1.933 s
  | RMS charge density error from multipole expansion :   0.158736E-01

  Integrating Hamiltonian matrix: batch-based integration.
  Time summed over all CPUs for integration: real work        4.970 s, elapsed        5.034 s

  Updating Kohn-Sham eigenvalues, eigenvectors, occupation numbers, and Fermi level.
  Solving generalized eigenproblem
  Updating Kohn-Sham eigenvalues and eigenfunctions.
  Solving real generalised eigenvalue problem by standard LAPACK (fast)
  Determining occupation numbers for Kohn-Sham eigenstates.
  | Chemical potential (Fermi level) in eV                 : -.19903163E+01
  | Error in electron count due to remaining E_F inaccuracy: 0.00000000E+00
  | Maximum occupation number of highest empty state:  0.00E+00

  Highest occupied state (VBM) at     -1.99031625 eV
  | Occupation number:      1.00000000

  Lowest unoccupied state (CBM) at    -1.99031625 eV
  | Occupation number:      1.00000000

  Overall HOMO-LUMO gap:      0.00000000 eV.

  Total energy components:
  | Sum of eigenvalues            :        -168.26942675 Ha       -4578.84407097 eV
  | XC energy correction          :         -37.48942731 Ha       -1020.13922123 eV
  | XC potential correction       :          47.91829184 Ha        1303.92306371 eV
  | Free-atom electrostatic energy:        -143.02806061 Ha       -3891.99155157 eV
  | Hartree energy correction     :          -5.83939480 Ha        -158.89801722 eV
  | van der Waals energy corr.    :           0.00000000 Ha           0.00000000 eV
  | Entropy correction            :          -0.00010367 Ha          -0.00282095 eV
  | ---------------------------
  | Total energy                  :        -306.70801764 Ha       -8345.94979728 eV
  | Total energy, T -> 0          :        -306.70812131 Ha       -8345.95261823 eV  <-- do not rely on this value for anything but (periodic) metals
  | Electronic free energy        :        -306.70822498 Ha       -8345.95543918 eV

  Derived energy quantities:
  | Kinetic energy                :         305.84277617 Ha        8322.40537882 eV
  | Electrostatic energy          :        -575.06136650 Ha      -15648.21595487 eV
  | Energy correction for multipole
  | error in Hartree potential    :          -0.00356167 Ha          -0.09691798 eV
  | Sum of eigenvalues per atom                           :        -352.21877469 eV
  | Total energy (T->0) per atom                          :        -641.99635525 eV  <-- do not rely on this value for anything but (periodic) metals
  | Electronic free energy per atom                       :        -641.99657224 eV

  Self-consistency convergence accuracy:
  | Change of charge density      : 0.8564E-03
  | Change of sum of eigenvalues  : -.1460E-01 eV
  | Change of total energy        : 0.1982E-04 eV

  End self-consistency iteration #     9       :  max(cpu_time)    wall_clock(cpu1)
  | Time for this iteration                    :        1.374 s           1.374 s
  | Charge density update                      :        0.447 s           0.447 s
  | Density mixing                             :        0.013 s           0.013 s
  | Hartree multipole update                   :        0.004 s           0.004 s
  | Hartree multipole summation                :        0.243 s           0.242 s
  | Integration                                :        0.630 s           0.631 s
  | Solution of K.-S. eqns.                    :        0.036 s           0.035 s
  | Total energy evaluation                    :        0.000 s           0.001 s
------------------------------------------------------------

------------------------------------------------------------
          Begin self-consistency iteration #   10

  Date     :  20150727, Time     :  124858.456
------------------------------------------------------------
  Evaluating new KS density.
  Integration grid: deviation in total charge (<rho> - N_e) =   7.105427E-15
[...]
  | Electronic free energy        :        -306.71039984 Ha       -8346.01462012 eV

  Derived energy quantities:
  | Kinetic energy                :         305.84276143 Ha        8322.40497773 eV
  | Electrostatic energy          :        -575.06155240 Ha      -15648.22101352 eV
  | Energy correction for multipole
  | error in Hartree potential    :          -0.00357350 Ha          -0.09723975 eV
  | Sum of eigenvalues per atom                           :        -352.22340446 eV
  | Total energy (T->0) per atom                          :        -642.00090763 eV  <-- do not rely on this value for anything but (periodic) metals
  | Electronic free energy per atom                       :        -642.00112462 eV

  atomic forces [eV/Ang]:
  -----------------------
  atom #    1
   Hellmann-Feynman + Multipole  : -.191033E+01 -.817926E+01 -.729115E+01
   Pulay + GGA                   : 0.158839E+01 0.878380E+01 0.706240E+01
   Van der Waals               : 0.376773E-02 -.162946E-02 0.680723E-02
   ----------------------------------------------------------------
   Total forces(   1)            : -.318175E+00 0.602913E+00 -.221939E+00
  atom #    2
   Hellmann-Feynman + Multipole  : -.288014E-02 -.224534E+00 0.610307E-01
   Pulay + GGA                   : -.276098E-01 0.580597E-01 -.373882E-01
   Van der Waals               : 0.546008E-03 0.168053E-02 0.234048E-02
   ----------------------------------------------------------------
   Total forces(   2)            : -.299439E-01 -.164794E+00 0.259829E-01
  atom #    3
   Hellmann-Feynman + Multipole  : -.984942E-01 -.115683E+00 0.101139E+00
   Pulay + GGA                   : 0.179695E+00 0.524045E-01 -.122793E-01
   Van der Waals               : 0.243531E-02 -.585134E-03 0.460150E-02
   ----------------------------------------------------------------
   Total forces(   3)            : 0.836358E-01 -.638632E-01 0.934608E-01
  atom #    4
   Hellmann-Feynman + Multipole  : 0.161841E+00 0.467687E-01 -.116121E+00
   Pulay + GGA                   : -.672071E-01 -.511217E-01 0.134276E+00
   Van der Waals               : 0.938115E-03 0.105449E-02 0.162800E-02
   ----------------------------------------------------------------
   Total forces(   4)            : 0.955721E-01 -.329857E-02 0.197829E-01
  atom #    5
   Hellmann-Feynman + Multipole  : -.621116E+01 -.673329E+01 0.881938E+01
   Pulay + GGA                   : 0.658235E+01 0.577799E+01 -.617624E+01
   Van der Waals               : -.568043E-02 0.989284E-03 -.401487E-02
   ----------------------------------------------------------------
   Total forces(   5)            : 0.365509E+00 -.954310E+00 0.263912E+01
  atom #    6
   Hellmann-Feynman + Multipole  : 0.862163E-01 0.275585E+00 0.250498E+00
   Pulay + GGA                   : 0.500264E-01 0.748341E-01 0.119760E-01
   Van der Waals               : -.262254E-02 0.621758E-02 0.313550E-03
   ----------------------------------------------------------------
   Total forces(   6)            : 0.133620E+00 0.356637E+00 0.262787E+00
  atom #    7
   Hellmann-Feynman + Multipole  : -.313046E+00 0.300639E+00 -.258289E+01
   Pulay + GGA                   : -.278926E-01 0.229813E-01 -.124207E+00
   Van der Waals               : -.128895E-02 0.343946E-02 -.875818E-03
   ----------------------------------------------------------------
   Total forces(   7)            : -.342227E+00 0.327060E+00 -.270797E+01
  atom #    8
   Hellmann-Feynman + Multipole  : 0.686825E+01 -.757989E+01 -.109666E+02
   Pulay + GGA                   : -.814354E+01 0.893300E+01 0.123547E+02
   Van der Waals               : -.937351E-03 0.453374E-04 -.729769E-02
   ----------------------------------------------------------------
   Total forces(   8)            : -.127623E+01 0.135316E+01 0.138078E+01
  atom #    9
   Hellmann-Feynman + Multipole  : -.455693E+00 0.320296E+00 -.215491E+01
   Pulay + GGA                   : 0.182276E-01 -.199996E-02 0.144927E+00
   Van der Waals               : -.137407E-03 0.528134E-04 -.298851E-02
   ----------------------------------------------------------------
   Total forces(   9)            : -.437603E+00 0.318349E+00 -.201297E+01
  atom #   10
   Hellmann-Feynman + Multipole  : 0.182387E+01 -.177883E+01 0.573632E+00
   Pulay + GGA                   : -.106705E+00 0.925538E-01 -.140743E-01
   Van der Waals               : -.866887E-03 -.307344E-02 -.304978E-02
   ----------------------------------------------------------------
   Total forces(  10)            : 0.171630E+01 -.168934E+01 0.556508E+00
  atom #   11
   Hellmann-Feynman + Multipole  : -.124839E+02 -.290307E+01 0.271074E+01
   Pulay + GGA                   : 0.132356E+02 0.409427E+01 -.331561E+01
   Van der Waals               : 0.276406E-02 -.438148E-02 0.507014E-02
   ----------------------------------------------------------------
   Total forces(  11)            : 0.754502E+00 0.118682E+01 -.599796E+00
  atom #   12
   Hellmann-Feynman + Multipole  : -.254441E+00 -.123576E+00 0.670836E-01
   Pulay + GGA                   : 0.122733E+00 -.547715E-01 0.226027E-01
   Van der Waals               : 0.228148E-02 0.634719E-03 -.275719E-02
   ----------------------------------------------------------------
   Total forces(  12)            : -.129427E+00 -.177713E+00 0.869291E-01
  atom #   13
   Hellmann-Feynman + Multipole  : -.651813E+00 -.120456E+01 0.550601E+00
   Pulay + GGA                   : 0.460130E-01 0.113031E+00 -.635577E-01
   Van der Waals               : -.119913E-02 -.444468E-02 0.222957E-03
   ----------------------------------------------------------------
   Total forces(  13)            : -.607000E+00 -.109597E+01 0.487267E+00
  Timings for vdw_correction_hirshfeld (Tkatchenko-Scheffler 2009):
  | CPU time:        3.683 s, Wall clock time:        3.686 s.
  Removing unitary transformations (pure translations, rotations) from forces on atoms.
  Atomic forces before filtering:
  | Net force on center of mass :  0.853698E-02 -.435217E-02 0.995161E-02 eV/A
  | Net torque on center of mass:  -.182981E-01 0.606757E-03 -.726636E-02 eV
  Atomic forces after filtering:
  | Net force on center of mass :  0.892031E-16 -.356812E-15 0.267609E-15 eV/A
  | Net torque on center of mass:  0.944085E-16 0.113290E-14 -.377634E-15 eV
 
  Energy and forces in a compact form:
  | Total energy uncorrected      :         -0.834600897822121E+04 eV
  | Total energy corrected        :         -0.834601179916912E+04 eV  <-- do not rely on this value for anything but (periodic) metals
  | Electronic free energy        :         -0.834601462011704E+04 eV
  Total atomic forces (unitary forces cleaned) [eV/Ang]:
  |   1         -0.318305446225518E+00          0.603516471296280E+00         -0.223269105466631E+00
  |   2         -0.302943524181929E-01         -0.164213445663600E+00          0.248899414295333E-01
  |   3          0.834409540645064E-01         -0.630322817176807E-01          0.922030830124035E-01
  |   4          0.954668138800432E-01         -0.302256472308839E-02          0.184214816318352E-01
  |   5          0.364863246415446E+00         -0.953797300432710E+00          0.263834722864728E+01
  |   6          0.132779775532408E+00          0.357169414969699E+00          0.262222617842201E+00
  |   7         -0.342903287067729E+00          0.327778353664190E+00         -0.270870957441699E+01
  |   8         -0.127684460569161E+01          0.135284769250282E+01          0.137996970109400E+01
  |   9         -0.438209575280604E+00          0.317798853940262E+00         -0.201379893439010E+01
  |  10          0.171550474408074E+01         -0.168979963066982E+01          0.555881373817868E+00
  |  11          0.753349466407423E+00          0.118725963866522E+01         -0.600025110389106E+00
  |  12         -0.130487778539409E+00         -0.177158837650328E+00          0.866028491412166E-01
  |  13         -0.608359955157501E+00         -0.109534636418125E+01          0.487264448046494E+00
 
  ------------------------------------ 
  Start decomposition of the XC Energy 
  ------------------------------------ 
  Hartree-Fock part   :          0.000000000 Ha              0.000000000 eV
  ------------------------------------ 
  X Energy            :        -36.165252959 Ha           -984.106603798 eV
  C Energy GGA        :         -1.323973878 Ha            -36.027162274 eV
  Total XC Energy     :        -37.489226837 Ha          -1020.133766072 eV
  LDA X and C from self-consistent density 
  X Energy LDA        :        -32.583566947 Ha           -886.643968580 eV
  C Energy LDA        :         -2.674197928 Ha            -72.768628044 eV
  ------------------------------------ 
  End decomposition of the XC Energy 
  ------------------------------------ 
  Performing Hirshfeld analysis of fragment charges and moments.
  ----------------------------------------------------------------------
  | Atom     1: O
  |   Hirshfeld charge        :     -0.13144991
  |   Free atom volume        :     23.95238533
  |   Hirshfeld volume        :     23.36837971
  |   Hirshfeld dipole vector :     -0.01168206       0.03692290       0.02149561
  |   Hirshfeld dipole moment :      0.04429258
  |   Hirshfeld second moments:      0.04819628      -0.00792413      -0.00885788
  |                                 -0.00792413       0.00702511      -0.03060853
  |                                 -0.00885788      -0.03060853       0.03536066
  ----------------------------------------------------------------------
  | Atom     2: H
  |   Hirshfeld charge        :      0.10355615
  |   Free atom volume        :     10.44207651
  |   Hirshfeld volume        :     10.58675738
  |   Hirshfeld dipole vector :     -0.01347493       0.01412299       0.00227362
  |   Hirshfeld dipole moment :      0.01965202
  |   Hirshfeld second moments:      0.02070302       0.01214369       0.00400788
  |                                  0.01214369       0.01610337       0.00695304
  |                                  0.00400788       0.00695304       0.04375466
  ----------------------------------------------------------------------
  | Atom     3: H
  |   Hirshfeld charge        :      0.04810018
  |   Free atom volume        :     10.44207651
  |   Hirshfeld volume        :     16.06660348
  |   Hirshfeld dipole vector :     -0.04299021       0.00520110      -0.00030144
  |   Hirshfeld dipole moment :      0.04330474
  |   Hirshfeld second moments:     -0.11457204      -0.02225743      -0.00997961
  |                                 -0.02225743      -0.05352619      -0.00255925
  |                                 -0.00997961      -0.00255925      -0.06116666
  ----------------------------------------------------------------------
  | Atom     4: H
  |   Hirshfeld charge        :      0.10906468
  |   Free atom volume        :     10.44207651
  |   Hirshfeld volume        :     12.39879124
  |   Hirshfeld dipole vector :     -0.02896176       0.01231480       0.02951772
  |   Hirshfeld dipole moment :      0.04314782
  |   Hirshfeld second moments:      0.00017755      -0.00054872      -0.00299057
  |                                 -0.00054872       0.00975842       0.00330050
  |                                 -0.00299057       0.00330050      -0.00966125
  ----------------------------------------------------------------------
  | Atom     5: O
  |   Hirshfeld charge        :     -0.21766782
  |   Free atom volume        :     23.95238533
  |   Hirshfeld volume        :     22.08230757
  |   Hirshfeld dipole vector :      0.02779207       0.00795830      -0.01647269
  |   Hirshfeld dipole moment :      0.03327285
  |   Hirshfeld second moments:     -0.00244461      -0.00153906       0.03477170
  |                                 -0.00153906       0.05783351       0.00337591
  |                                  0.03477170       0.00337591       0.06411378
  ----------------------------------------------------------------------
  | Atom     6: H
  |   Hirshfeld charge        :      0.09743807
  |   Free atom volume        :     10.44207651
  |   Hirshfeld volume        :      9.82158224
  |   Hirshfeld dipole vector :      0.01018586       0.03351012       0.01182730
  |   Hirshfeld dipole moment :      0.03696708
  |   Hirshfeld second moments:      0.02280795      -0.01439365       0.01021348
  |                                 -0.01439365       0.04088936      -0.01790786
  |                                  0.01021348      -0.01790786       0.05566925
  ----------------------------------------------------------------------
  | Atom     7: H
  |   Hirshfeld charge        :      0.12304182
  |   Free atom volume        :     10.44207651
  |   Hirshfeld volume        :     10.22182269
  |   Hirshfeld dipole vector :     -0.02025975       0.01195626      -0.07557134
  |   Hirshfeld dipole moment :      0.07914820
  |   Hirshfeld second moments:      0.03237508       0.00366120       0.01578253
  |                                  0.00366120       0.06521930       0.00477859
  |                                  0.01578253       0.00477859       0.04434381
  ----------------------------------------------------------------------
  | Atom     8: O
  |   Hirshfeld charge        :     -0.32284330
  |   Free atom volume        :     23.95238533
  |   Hirshfeld volume        :     24.37791168
  |   Hirshfeld dipole vector :     -0.03428160       0.04242543       0.05637820
  |   Hirshfeld dipole moment :      0.07844518
  |   Hirshfeld second moments:     -0.06103984      -0.04755685       0.03994102
  |                                 -0.04755685      -0.06073116      -0.03240585
  |                                  0.03994102      -0.03240585       0.00013376
  ----------------------------------------------------------------------
  | Atom     9: H
  |   Hirshfeld charge        :      0.12047729
  |   Free atom volume        :     10.44207651
  |   Hirshfeld volume        :      8.56456084
  |   Hirshfeld dipole vector :      0.01755353      -0.00789687       0.11647493
  |   Hirshfeld dipole moment :      0.11805463
  |   Hirshfeld second moments:      0.07362193      -0.02067421       0.01273329
  |                                 -0.02067421       0.06707416      -0.01227257
  |                                  0.01273329      -0.01227257       0.07284902
  ----------------------------------------------------------------------
  | Atom    10: H
  |   Hirshfeld charge        :      0.11289547
  |   Free atom volume        :     10.44207651
  |   Hirshfeld volume        :      9.04971858
  |   Hirshfeld dipole vector :     -0.07246721       0.07190309      -0.00814652
  |   Hirshfeld dipole moment :      0.10241053
  |   Hirshfeld second moments:      0.05334667      -0.00986119      -0.00030024
  |                                 -0.00986119       0.04010030      -0.00198257
  |                                 -0.00030024      -0.00198257       0.08269801
  ----------------------------------------------------------------------
  | Atom    11: O
  |   Hirshfeld charge        :     -0.25233990
  |   Free atom volume        :     23.95238533
  |   Hirshfeld volume        :     22.58267144
  |   Hirshfeld dipole vector :      0.02432617      -0.00872126      -0.02075666
  |   Hirshfeld dipole moment :      0.03314607
  |   Hirshfeld second moments:      0.01095540       0.00945084       0.03366929
  |                                  0.00945084       0.04607141      -0.03312084
  |                                  0.03366929      -0.03312084      -0.00698984
  ----------------------------------------------------------------------
  | Atom    12: H
  |   Hirshfeld charge        :      0.09553078
  |   Free atom volume        :     10.44207651
  |   Hirshfeld volume        :     10.87525107
  |   Hirshfeld dipole vector :      0.04211027      -0.01239034       0.03322088
  |   Hirshfeld dipole moment :      0.05504927
  |   Hirshfeld second moments:      0.01328121       0.03708843       0.00913272
  |                                  0.03708843       0.03394215      -0.01322058
  |                                  0.00913272      -0.01322058       0.02908790
  ----------------------------------------------------------------------
  | Atom    13: H
  |   Hirshfeld charge        :      0.11417641
  |   Free atom volume        :     10.44207651
  |   Hirshfeld volume        :      9.95850926
  |   Hirshfeld dipole vector :      0.02078467       0.07366708      -0.03240698
  |   Hirshfeld dipole moment :      0.08312072
  |   Hirshfeld second moments:      0.05320792      -0.00142231       0.01767910
  |                                 -0.00142231       0.05654537      -0.00878222
  |                                  0.01767910      -0.00878222       0.03290655
  ----------------------------------------------------------------------


------------------------------------------------------------------------------
  Final output of selected total energy values:

  The following output summarizes some interesting total energy values
  at the end of a run (AFTER all relaxation, molecular dynamics, etc.).

  | Total energy of the DFT / Hartree-Fock s.c.f. calculation      :          -8346.008978221 eV
  | Final zero-broadening corrected energy (caution - metals only) :          -8346.011799169 eV
  | For reference only, the value of 1 Hartree used in FHI-aims is :             27.211384500 eV

  Before relying on these values, please be sure to understand exactly which
  total energy value is referred to by a given number. Different objects may
  all carry the same name 'total energy'. Definitions:

  Total energy of the DFT / Hartree-Fock s.c.f. calculation:
  | Note that this energy does not include ANY quantities calculated after the
  | s.c.f. cycle, in particular not ANY RPA, MP2, etc. many-body perturbation terms.

  Final zero-broadening corrected energy:
  | For metallic systems only, a broadening of the occupation numbers at the Fermi
  | level can be extrapolated back to zero broadening by an electron-gas inspired
  | formula. For all systems that are not real metals, this value can be
  | meaningless and should be avoided.

------------------------------------------------------------------------------

------------------------------------------------------------
          Leaving FHI-aims.
          Date     :  20150727, Time     :  124910.956

          Computational steps:
          | Number of self-consistency cycles          :           16

          Detailed time accounting                     :  max(cpu_time)    wall_clock(cpu1)
          | Total time                                 :       26.780 s          26.803 s
          | Preparation time                           :        0.169 s           0.483 s
          | Grid partitioning                          :        0.128 s           0.129 s
          | Preloading free-atom quantities on grid    :        0.014 s           0.013 s
          | Free-atom superposition energy             :        0.052 s           0.051 s
          | Total time for integrations                :       11.091 s          11.087 s
          | Total time for solution of K.-S. equations :        0.701 s           0.705 s
          | Total time for density & force components  :        9.101 s           9.092 s
          | Total time for mixing                      :        0.173 s           0.177 s
          | Total time for Hartree multipole update    :        0.075 s           0.071 s
          | Total time for Hartree multipole sum       :        4.682 s           4.686 s
          | Total time for total energy evaluation     :        0.005 s           0.019 s
          | Total time for scaled ZORA corrections     :        0.000 s           0.000 s
          | Total time for TS (2009) vdW correction    :        0.042 s           0.045 s

          Have a nice day.
------------------------------------------------------------
