  MPI-parallelism will be employed.
------------------------------------------------------------
          Invoking FHI-aims ...
          Version 081213
          Compiled on 2013/08/29 at 17:41:06 on host generoso.

          When using FHI-aims, please cite the following reference:

          Volker Blum, Ralf Gehrke, Felix Hanke, Paula Havu,
          Ville Havu, Xinguo Ren, Karsten Reuter, and Matthias Scheffler,
          'Ab Initio Molecular Simulations with Numeric Atom-Centered Orbitals: FHI-aims',
          Computer Physics Communications 180, 2175-2196 (2009)

          For any questions about FHI-aims, please visit the aimsclub website
          with its forums and wiki. Contributions to both the forums and the
          wiki are warmly encouraged - they are for you, and everyone is welcome there.

------------------------------------------------------------

  Date     :  20150727, Time     :  125832.571
  Time zero on CPU 1             :   0.439920000000000E-01  s.
  Internal wall clock time zero  :           207233912.571  s.

  Using        8 parallel tasks.
  Task        0 on host gen59 reporting.
  Task        1 on host gen59 reporting.
  Task        2 on host gen59 reporting.
  Task        3 on host gen59 reporting.
  Task        4 on host gen59 reporting.
  Task        5 on host gen59 reporting.
  Task        6 on host gen59 reporting.
  Task        7 on host gen59 reporting.

  Performing system and environment tests:
  | Environment variable OMP_NUM_THREADS correctly set to 1.
  | Checking for scalapack...
  | No scalapack compiled in.

  Obtaining array dimensions for all initial allocations:
  
  -----------------------------------------------------------------------
  Parsing control.in (first pass over file, find array dimensions only).
  The contents of control.in will be repeated verbatim below
  unless switched off by setting 'verbatim_writeout .false.' .
  in the first line of control.in .
  -----------------------------------------------------------------------
  
  #########################################################################################
  #
  #  Volker Blum, FHI 2008 : Test run input file control.in
  #
  #########################################################################################
  #
  #  Physical model
  #
    xc                 rpbe
    spin               none
    relativistic       atomic_zora scalar
    charge             0.
   vdw_correction_hirshfeld
  #
  #  SCF convergence
  #
    occupation_type    gaussian 0.01
    mixer              pulay
      n_max_pulay        10
      charge_mix_param   0.1
    sc_accuracy_rho    5E-5
    sc_accuracy_eev    5E-3
    sc_accuracy_etot   5E-6
    sc_iter_limit      3000
  #
  #  Eigenvalue solver
  #
    KS_method          lapack
      empty_states       8
      basis_threshold    0.e-5
  #
  #  Efficiency
  #
  #   all previous settings are now default, except stratmann still
  #   undecided. Continue to handle stratmann with care, if at all.
  #
  #  partition_type stratmann
    partition_type rho_r2
  #  hartree_partition_type stratmann
  #
  #  Oprions for large clusters (100's of atoms: memory saving / better scaling)
  #
  # for periodic systems:
  #
    density_update_method orbital
    packed_matrix_format none
  #  k_grid 6 6 6
  #  output k_eigenvalue 1
  #  distributed_spline_storage .true.
  #
  #  Relaxation
  #
  #  relax_geometry   bfgs 5.e-3
    sc_accuracy_forces 5.E-4
    final_forces_cleaned .true.
  #
  #  Output options
  #
  #  output mulliken
    output Hirshfeld
  #  output dipole
  
  #harmonic_length_scale 0.001
  
  ################################################################################
  #
  #  FHI-aims code project
  #  VB, Fritz-Haber Institut, 2007
  #
  #  Suggested "safe" defaults for H atom (to be pasted into control.in file)
  #  Basis constructed for a non-relativistic H2 molecule using the
  #  PW-LDA functional.
  #
  ################################################################################
    species        H
  #     global species definitions
      nucleus             1
      cut_pot             4.0  2.0  1.0
      cut_free_atom       finite 8.0
      logarithmic         0.00010000 100.00  1.0123
      basis_dep_cutoff    1d-4  # 1d-4 is safe default - please check 5d-4 if you wish!
      radial_base         24 7.0
      radial_multiplier   2
      angular_grids       specified
        division   0.2783  110
        division   0.3822  194
        division   0.5626  302
  #      division   0.5922  434
  #      division   0.6227  590
  #      division   0.7206  770
        outer_grid  302
      l_hartree           4
  ################################################################################
  #
  #  Definition of "minimal" basis
  #
  ################################################################################
  #     valence basis states
      valence      1  s   1.
  #     ion occupancy
      ion_occ      1  s   0.5
  ################################################################################
  #
  #  Suggested additional basis functions. For production calculations,
  #  uncomment them one after another (the most important basis functions are
  #  listed first).
  #
  ################################################################################
  #  "First tier" - improvements: -1014.90 meV to -62.69 meV
       hydro 2 s 2.1
       hydro 2 p 3.5
  #  "Second tier" - improvements: -12.89 meV to -1.83 meV
       hydro 1 s 0.85
       hydro 2 p 3.7
       hydro 2 s 1.2
       hydro 3 d 7
  #  "Third tier" - improvements: -0.25 meV to -0.12 meV
  #     hydro 4 f 11.2
  #     hydro 3 p 4.8
  #     hydro 4 d 9
  #     hydro 3 s 3.2
  
  ################################################################################
  #
  #  FHI-aims code project
  #  VB, Fritz-Haber Institut, 2007
  #
  #  Suggested "safe" defaults for O atom (to be pasted into control.in file)
  #  All values have been tested for a non-relativistic, non-spinpolarized O2
  #  molecule using the PW-LDA functional. Validity for PBE is expected.
  #
  #  Constructed for dimers: 1.0 A, 1.208 A, 1.5 A, 2.0 A, 3.0 A
  #
  ################################################################################
    species        O
  #     global species definitions
      nucleus             8
      mass                15.9994
      l_hartree           4
      cut_pot             4.0  2.0  1.0
      cut_free_atom       finite 8.0
      basis_dep_cutoff    1d-4  # 1d-4 is safe default - please check 5d-4 if you wish!
      logarithmic         0.00010000 100.00  1.0123
      radial_base         36 7.0
      radial_multiplier   2
       angular_grids specified
        division   0.4087  110
        division   0.5181  194
        division   0.6184  302
  #      division   0.7315  434
  #      division   0.7934  590
  #      division   0.9656  770
  #      division   1.4041  974
  #      outer_grid 974
        outer_grid 302
  ################################################################################
  #
  #  Definition of "minimal" basis
  #
  ################################################################################
  #     valence basis states
      valence      2  s   2.
      valence      2  p   4.
  #     ion occupancy
      ion_occ      2  s   1.
      ion_occ      2  p   3.
  ################################################################################
  #
  #  Suggested additional basis functions. For production calculations,
  #  uncomment them one after another (the most important basis functions are
  #  listed first).
  #
  ################################################################################
  #  "First tier" - improvements: -699.05 meV to -159.38 meV
       hydro 2 p 1.8
       hydro 3 d 7.6
       hydro 3 s 6.4
  #  "Second tier" - improvements: -49.91 meV to -5.39 meV
       hydro 4 f 11.6
       hydro 3 p 6.2
       hydro 3 d 5.6
       hydro 5 g 17.6
       hydro 1 s 0.75
  #  "Third tier" - improvements: -2.83 meV to -0.50 meV
  #     ionic 2 p auto
  #     hydro 4 f 10.8
  #     hydro 4 d 4.7
  #     hydro 2 s 6.8
  #  "Fourth tier" - improvements: -0.40 meV to -0.12 meV
  #     hydro 3 p 5
  #     hydro 3 s 3.3
  #     hydro 5 g 15.6
  #     hydro 4 f 17.6
  #     hydro 4 d 14
  # Further basis functions - -0.08 meV and below
  #     hydro 3 s 2.1
  #     hydro 4 d 11.6
  #     hydro 3 p 16
  #     hydro 2 s 17.2
  
  
  -----------------------------------------------------------------------
  Completed first pass over input file control.in .
  -----------------------------------------------------------------------
  
  
  -----------------------------------------------------------------------
  Parsing geometry.in (first pass over file, find array dimensions only).
  The contents of geometry.in will be repeated verbatim below
  unless switched off by setting 'verbatim_writeout .false.' .
  in the first line of geometry.in .
  -----------------------------------------------------------------------
  
  atom      -4.053030000      0.065001000     -1.525160000  O
  atom      -4.566710000      0.974813000     -1.912820000  H
  atom      -3.067820000      0.330172000     -1.477310000  H
  atom      -4.370360000     -0.049164000     -0.572274000  H
  atom      -1.645860000      0.870179000     -1.502250000  O
  atom      -1.568890000      1.501730000     -0.721051000  H
  atom      -0.824432000      0.282220000     -1.377720000  H
  atom      -1.975360000      2.858040000      0.453140000  O
  atom      -1.223550000      3.375850000      0.786238000  H
  atom      -2.537520000      2.567960000      1.156120000  H
  atom      -4.066610000      4.258280000     -0.900064000  O
  atom      -3.224110000      3.876870000     -0.569443000  H
  atom      -3.737450000      5.116530000     -1.322720000  H
  
  -----------------------------------------------------------------------
  Completed first pass over input file geometry.in .
  -----------------------------------------------------------------------
  
 
  Basic array size parameters: 
  | Number of species                 :        2
  | Number of atoms                   :       13
  | Max. basis fn. angular momentum   :        4
  | Max. atomic/ionic basis occupied n:        2
  | Max. number of basis fn. types    :        2
  | Max. radial fns per species/type  :        8
  | Max. logarithmic grid size        :     1301
  | Max. radial integration grid size :       73
  | Max. angular integration grid size:      302
  | Max. angular grid division number :        8
  | Radial grid for Hartree potential :     1301
  | Number of spin channels           :        1

------------------------------------------------------------
          Reading file control.in.
------------------------------------------------------------
  XC: Using RPBE gradient-corrected functionals.
  Spin treatment: No spin polarisation.
  Scalar relativistic treatment of kinetic energy: on-site free-atom approximation to ZORA.
  Charge =   0.000000E+00: Neutral system requested explicitly.
  Using non-empirical van der Waals correction (Hirshfeld partitioning):
  Occupation type: Gaussian broadening, width =   0.100000E-01 eV.
  Using pulay charge density mixing.
  Pulay mixing - number of memorized iterations:   10
  Charge density mixing - mixing parameter:     0.1000
  Convergence accuracy of self-consistent charge density: 0.5000E-04
  Convergence accuracy of sum of eigenvalues: 0.5000E-02
  Convergence accuracy of total energy: 0.5000E-05
  Maximum number of s.-c. iterations  :  3000
  Kohn-Sham eigenvalues and eigenfunctions calculated by lapack diagonalisation (D&C).
  Number of empty states per atom:        8
  Threshold for basis singularities: 0.0000E+00
  Partition function in integrals calculations: rho / r^2
 Using packed matrix format           0
  Convergence accuracy of forces: 0.5000E-03
  Cleaning forces before final output.
  Hirshfeld charge analysis will be performed.
 
  Reading configuration options for species H                   .
  | Found nuclear charge :   1.0000
  | Found cutoff potl. onset [A], width [A], scale factor :    4.00000    2.00000    1.00000
  | Found cutoff specification for free atom: Cutoff potential begins at    8.00000 A.
  | Found logarithmic grid data [bohr] : 0.1000E-03 0.1000E+03 0.1012E+01
  | Threshold for basis-dependent cutoff potential is   0.100000E-03
  | Found data for basic radial integration grid :    24 points, outermost radius =    7.000 A
  | Found multiplier for basic radial grid :   2
  | Found angular grid specification: user-specified.
  | Specified grid contains     4 separate shells.
  | Check grid settings after all constraints further below.
  | Found l_max for Hartree potential  :   4
  | Found free-atom valence shell :  1 s   1.000
  | No ionic wave fns used. Skipping ion_occ.
  | Found hydrogenic basis function :  2 s   2.100
  | Found hydrogenic basis function :  2 p   3.500
  | Found hydrogenic basis function :  1 s   0.850
  | Found hydrogenic basis function :  2 p   3.700
  | Found hydrogenic basis function :  2 s   1.200
  | Found hydrogenic basis function :  3 d   7.000
  Species H                   : Missing cutoff potential type.
  Defaulting to exp(1/x)/(1-x)^2 type cutoff potential.
  Species H : On-site basis accuracy parameter (for Gram-Schmidt orthonormalisation) not specified.
  Using default value basis_acc =  0.1000000E-03.
  Species H                   : Using default innermost maximum threshold i_radial=  2 for radial functions.
  Species H                   : Basic radial grid will be enhanced according to radial_multiplier =   2, to contain    49 grid points.
 
  Reading configuration options for species O                   .
  | Found nuclear charge :   8.0000
  | Found atomic mass :    15.9994000000000      amu
  | Found l_max for Hartree potential  :   4
  | Found cutoff potl. onset [A], width [A], scale factor :    4.00000    2.00000    1.00000
  | Found cutoff specification for free atom: Cutoff potential begins at    8.00000 A.
  | Threshold for basis-dependent cutoff potential is   0.100000E-03
  | Found logarithmic grid data [bohr] : 0.1000E-03 0.1000E+03 0.1012E+01
  | Found data for basic radial integration grid :    36 points, outermost radius =    7.000 A
  | Found multiplier for basic radial grid :   2
  | Found angular grid specification: user-specified.
  | Specified grid contains     4 separate shells.
  | Check grid settings after all constraints further below.
  | Found free-atom valence shell :  2 s   2.000
  | Found free-atom valence shell :  2 p   4.000
  | No ionic wave fns used. Skipping ion_occ.
  | No ionic wave fns used. Skipping ion_occ.
  | Found hydrogenic basis function :  2 p   1.800
  | Found hydrogenic basis function :  3 d   7.600
  | Found hydrogenic basis function :  3 s   6.400
  | Found hydrogenic basis function :  4 f  11.600
  | Found hydrogenic basis function :  3 p   6.200
  | Found hydrogenic basis function :  3 d   5.600
  | Found hydrogenic basis function :  5 g  17.600
  | Found hydrogenic basis function :  1 s   0.750
  Species O                   : Missing cutoff potential type.
  Defaulting to exp(1/x)/(1-x)^2 type cutoff potential.
  Species O : On-site basis accuracy parameter (for Gram-Schmidt orthonormalisation) not specified.
  Using default value basis_acc =  0.1000000E-03.
  Species O                   : Using default innermost maximum threshold i_radial=  2 for radial functions.
  Species O                   : Basic radial grid will be enhanced according to radial_multiplier =   2, to contain    73 grid points.
 
  Finished reading input file 'control.in'. Consistency checks are next.
 
  Target number of points in a grid batch is not set. Defaulting to  100
  Method for grid partitioning is not set. Defaulting to parallel hash+maxmin partitioning.
  Batch size limit is not set. Defaulting to    200
  By default, will store active basis functions for each batch.
  If in need of memory, prune_basis_once .false. can be used to disable this option.
  communication_type for Hartree potential was not specified.
  Defaulting to calc_hartree .
  Pulay mixer: Number of initial linear mixing iterations not set.
  Defaulting to    0 iterations.
  Work space size for distributed Hartree potential not set.
  Defaulting to   0.200000E+03 MB.
  Algorithm-dependent basis array size parameters:
  | n_max_pulay                         :       10
  Geometry relaxation not requested: no relaxation will be performed.
  Handling of forces: Unphysical translation and rotation will be removed from forces.
  No accuracy limit for integral partition fn. given. Defaulting to 0.1000E-14.
  No threshold value for u(r) in integrations given. Defaulting to 0.1000E-05.
  No accuracy for occupation numbers given. Defaulting to 0.1000E-07.
  No threshold value for occupation numbers given. Defaulting to 0.0000E+00.
  No accuracy for fermi level given. Defaulting to 0.1000E-19.
  Maximum # of iterations to find E_F not set. Defaulting to  200.
  Will not use alltoall communication since running on < 1024 CPUs.
  Partitioning for Hartree potential was not defined. Using partition_type for integrals.
  | Reporting present value of keyword multip_moments_threshold  :       0.10000000E-09
  | This value may affect high angular momentum components of the Hartree potential in periodic systems.
  No q(lm)/r^(l+1) cutoff set for long-range Hartree potential.
  | Using default value of  0.100000E-09 .
  | Verify using the multipole_threshold keyword.
  Defaulting to new monopole extrapolation.
  Density update method: Loop over occupied states selected for charge density update.
------------------------------------------------------------


------------------------------------------------------------
          Reading geometry description geometry.in.
------------------------------------------------------------
  Input structure read successfully.
  The structure contains       13 atoms,  and a total of         41.000 electrons.

  Input geometry:
  | No unit cell requested.
  | Atomic structure:
  |       Atom                x [A]            y [A]            z [A]
  |    1: Species O             -4.053030         0.065001        -1.525160
  |    2: Species H             -4.566710         0.974813        -1.912820
  |    3: Species H             -3.067820         0.330172        -1.477310
  |    4: Species H             -4.370360        -0.049164        -0.572274
  |    5: Species O             -1.645860         0.870179        -1.502250
  |    6: Species H             -1.568890         1.501730        -0.721051
  |    7: Species H             -0.824432         0.282220        -1.377720
  |    8: Species O             -1.975360         2.858040         0.453140
  |    9: Species H             -1.223550         3.375850         0.786238
  |   10: Species H             -2.537520         2.567960         1.156120
  |   11: Species O             -4.066610         4.258280        -0.900064
  |   12: Species H             -3.224110         3.876870        -0.569443
  |   13: Species H             -3.737450         5.116530        -1.322720
  |

  | The smallest distance between any two atoms is         0.94570141 AA.
  |
  | The first atom of this pair is atom number                      8 .
  | The second atom of this pair is atom number                    10 .

  Structure-dependent array size parameters: 
  | Maximum number of distinct radial functions  :       18
  | Maximum number of basis functions            :      291
  | Number of Kohn-Sham states (occupied + empty):       73
------------------------------------------------------------

------------------------------------------------------------
          Preparing all fixed parts of the calculation.
------------------------------------------------------------
  Determining machine precision:
    2.225073858507201E-308
  Setting up grids for atomic and cluster calculations.

  Creating wave function, potential, and density for free atoms.

  Species: H

  List of occupied orbitals and eigenvalues:
    n    l              occ      energy [Ha]    energy [eV]
    1    0           1.0000        -0.241408        -6.5691


  Species: O

  List of occupied orbitals and eigenvalues:
    n    l              occ      energy [Ha]    energy [eV]
    1    0           2.0000       -18.944147      -515.4965
    2    0           2.0000        -0.883529       -24.0421
    2    1           4.0000        -0.330176        -8.9845

  Creating fixed part of basis set: Ionic, confined, hydrogenic.
 
  H                    hydrogenic:
 
  List of hydrogenic basis orbitals: 
    n    l      effective z      eigenvalue [eV]  inner max. [A]     outer max. [A]     outer radius [A]   
    2    0         2.100000       -14.9965           0.193241           1.317192           5.372934
    2    1         3.500000       -41.6672           0.602363           0.602363           4.056010
    1    0         0.850000        -9.8292           0.624864           0.624864           5.372934
    2    1         3.700000       -46.5653           0.573616           0.573616           3.909951
    2    0         1.200000        -4.5995           0.334977           2.228160           5.505921
    3    2         7.000000       -74.0753           0.680692           0.680692           3.769152
 
 
  O                    hydrogenic:
 
  List of hydrogenic basis orbitals: 
    n    l      effective z      eigenvalue [eV]  inner max. [A]     outer max. [A]     outer radius [A]   
    2    1         1.800000       -11.0118           1.178546           1.178546           5.432516
    3    2         7.600000       -87.3182           0.624117           0.624117           3.541422
    3    0         6.400000       -61.9209           0.061166           1.081887           4.306510
    4    3        11.600000      -114.4238           0.731621           0.731621           3.584982
    3    1         6.200000       -58.1113           0.255677           1.030255           4.306510
    3    2         5.600000       -47.4081           0.847222           0.847222           4.413102
    5    4        17.600000      -168.5799           0.749730           0.749730           3.372413
    1    0         0.750000        -7.6499           0.705275           0.705275           5.366508
 

  Adding cutoff potential to free-atom effective potential.
  Creating atomic-like basis functions for current effective potential.

  Species H                   :

  List of atomic basis orbitals and eigenvalues:
    n    l      energy [Ha]    energy [eV]    outer radius [A]
    1    0        -0.241374        -6.5681       5.372934


  Species O                   :

  List of atomic basis orbitals and eigenvalues:
    n    l      energy [Ha]    energy [eV]    outer radius [A]
    1    0       -18.944147      -515.4965       1.415745
    2    0        -0.883529       -24.0421       5.048305
    2    1        -0.330173        -8.9845       5.301302

  Assembling full basis from fixed parts.
  | Species H :   atomic orbital   1 s accepted.
  | Species H :    hydro orbital   2 s accepted.
  | Species H :    hydro orbital   1 s accepted.
  | Species H :    hydro orbital   2 s accepted.
  | Species H :    hydro orbital   2 p accepted.
  | Species H :    hydro orbital   2 p accepted.
  | Species H :    hydro orbital   3 d accepted.
  | Species O :   atomic orbital   1 s accepted.
  | Species O :    hydro orbital   3 s accepted.
  | Species O :   atomic orbital   2 s accepted.
  | Species O :    hydro orbital   1 s accepted.
  | Species O :    hydro orbital   3 p accepted.
  | Species O :   atomic orbital   2 p accepted.
  | Species O :    hydro orbital   2 p accepted.
  | Species O :    hydro orbital   3 d accepted.
  | Species O :    hydro orbital   3 d accepted.
  | Species O :    hydro orbital   4 f accepted.
  | Species O :    hydro orbital   5 g accepted.
 
  Basis size parameters after reduction:
  | Total number of radial functions:       18
  | Total number of basis functions :      291
 
  Testing on-site integration grid accuracy.
  |  Species  Function  <phi|h_atom|phi> (log., in eV)  <phi|h_atom|phi> (rad., in eV)
           1        1                 -6.5683835025                 -6.5684759159
           1        2                 13.3711789951                 13.3708738703
           1        3                 23.6590910787                 23.6532055418
           1        4                 16.2963827186                 16.1870710655 ***
           1        5                 28.7627214838                 28.7627215090
           1        6                 59.5965249172                 59.5965950857
           1        7                 60.2220506392                 60.2220503827
           2        8               -515.4964576505               -515.4964530710
           2        9                 15.3030791347                 15.3030722972
           2       10                -21.7296094581                -21.7296135470
           2       11                 14.2969371730                 14.2969701621
           2       12                 21.0679693190                 21.0679697493
           2       13                 -2.3833606469                 -2.3833613176
           2       14                 13.7067136422                 13.7066766629
           2       15                 45.8013116808                 45.8013116965
           2       16                 52.2309815402                 52.2309831494
           2       17                 85.4120732416                 85.4120732763
           2       18                142.1019167745                142.1019167817
 * Note: Onsite integrals marked "***" above are less accurate than
 * onsite_accuracy_threshold =    0.03000 eV. Usually, this is harmless.
 * When in doubt, tighten the "radial" and/or "radial_multiplier" flags to check.

  Preparing densities etc. for the partition functions (integrals / Hartree potential).

  Preparations completed.
  max(cpu_time)          :      0.169 s.
  Wall clock time (cpu1) :      0.575 s.
------------------------------------------------------------

------------------------------------------------------------
          Begin self-consistency loop: Initialization.

          Date     :  20150727, Time     :  125833.217
------------------------------------------------------------

  Initializing index lists of integration centers etc. from given atomic structure:
  | Number of centers in hartree potential         :        13
  | Number of centers in hartree multipole         :        13
  | Number of centers in electron density summation:        13
  | Number of centers in basis integrals           :        13
  | Number of centers in integrals                 :        13
  Partitioning the integration grid into batches with parallel hashing+maxmin method.
  | Number of batches:     1916
  | Maximal batch size:     185
  | Minimal batch size:      50
  | Average batch size:      88.185
  | Standard deviation of batch sizes:      27.349

  Integration load balanced across     8 MPI tasks.
  Work distribution over tasks is as follows:
  Task     0 has      21169 integration points.
  Task     1 has      21079 integration points.
  Task     2 has      21162 integration points.
  Task     3 has      21118 integration points.
  Task     4 has      21075 integration points.
  Task     5 has      21078 integration points.
  Task     6 has      21163 integration points.
  Task     7 has      21118 integration points.
  Initializing partition tables, free-atom densities, potentials, etc. across the integration grid (initialize_grid_storage).
  | Net number of integration points:   168962
  | of which are non-zero points    :   168428
  Obtaining max. number of non-zero basis functions in each batch (get_n_compute_maxes).
  | Maximal number of non-zero basis functions:      289 in task     0
  | Maximal number of non-zero basis functions:      289 in task     1
  | Maximal number of non-zero basis functions:      289 in task     2
  | Maximal number of non-zero basis functions:      289 in task     3
  | Maximal number of non-zero basis functions:      289 in task     4
  | Maximal number of non-zero basis functions:      289 in task     5
  | Maximal number of non-zero basis functions:      289 in task     6
  | Maximal number of non-zero basis functions:      289 in task     7
  Integrating Hamiltonian matrix: batch-based integration.
  Time summed over all CPUs for integration: real work        5.523 s, elapsed        5.619 s
  Integrating overlap matrix.
  Time summed over all CPUs for integration: real work        2.939 s, elapsed        2.996 s

  Updating Kohn-Sham eigenvalues, eigenvectors, occupation numbers, and Fermi level.
  Solving generalized eigenproblem
  Updating Kohn-Sham eigenvalues and eigenfunctions.
  Transforming overlap matrix and checking for singularities.
  Overlap matrix is nonsingular:
  | Lowest eigenvalue:  0.285906E-03
  Solving real generalised eigenvalue problem by standard LAPACK (fast)
  Determining occupation numbers for Kohn-Sham eigenstates.
  | Chemical potential (Fermi level) in eV                 : -.28936805E+01
  | Error in electron count due to remaining E_F inaccuracy: 0.95108703E-08
  | Maximum occupation number of highest empty state:  0.00E+00

  Writing Kohn-Sham eigenvalues.

  State    Occupation    Eigenvalue [Ha]    Eigenvalue [eV]
      1       2.00000         -19.064922         -518.78292
      2       2.00000         -19.059384         -518.63222
      3       2.00000         -19.042587         -518.17516
      4       2.00000         -19.040124         -518.10815
      5       2.00000          -1.122417          -30.54252
      6       2.00000          -1.111374          -30.24203
      7       2.00000          -1.083172          -29.47462
      8       2.00000          -1.081558          -29.43070
      9       2.00000          -0.651798          -17.73631
     10       2.00000          -0.639317          -17.39670
     11       2.00000          -0.608827          -16.56702
     12       2.00000          -0.605805          -16.48479
     13       2.00000          -0.602430          -16.39296
     14       2.00000          -0.522716          -14.22383
     15       2.00000          -0.511166          -13.90953
     16       2.00000          -0.500166          -13.61021
     17       2.00000          -0.485956          -13.22353
     18       2.00000          -0.448168          -12.19528
     19       2.00000          -0.435921          -11.86202
     20       2.00000          -0.426746          -11.61236
     21       1.00000          -0.106341           -2.89368
     22       0.00000          -0.074964           -2.03988
     23       0.00000          -0.058221           -1.58428
     24       0.00000          -0.044445           -1.20941
     25       0.00000          -0.028168           -0.76649
     26       0.00000           0.000700            0.01905
     27       0.00000           0.031734            0.86353
     28       0.00000           0.043717            1.18959
     29       0.00000           0.046265            1.25894
     30       0.00000           0.063159            1.71866
     31       0.00000           0.079888            2.17387
     32       0.00000           0.085011            2.31326
     33       0.00000           0.092962            2.52963
     34       0.00000           0.098513            2.68067
     35       0.00000           0.103985            2.82957
     36       0.00000           0.111133            3.02407
     37       0.00000           0.122006            3.31996
     38       0.00000           0.133017            3.61958
     39       0.00000           0.145968            3.97198
     40       0.00000           0.154137            4.19428
     41       0.00000           0.160780            4.37505
     42       0.00000           0.179445            4.88294
     43       0.00000           0.206927            5.63077
     44       0.00000           0.226204            6.15532
     45       0.00000           0.227928            6.20222
     46       0.00000           0.239611            6.52015
     47       0.00000           0.248421            6.75989
     48       0.00000           0.274541            7.47064
     49       0.00000           0.294230            8.00641
     50       0.00000           0.307747            8.37422
     51       0.00000           0.345168            9.39250
     52       0.00000           0.354816            9.65504
     53       0.00000           0.367212            9.99234
     54       0.00000           0.372471           10.13544
     55       0.00000           0.379557           10.32827
     56       0.00000           0.386079           10.50575
     57       0.00000           0.396284           10.78345
     58       0.00000           0.422356           11.49289
     59       0.00000           0.436752           11.88463
     60       0.00000           0.459583           12.50588
     61       0.00000           0.468080           12.73712
     62       0.00000           0.471991           12.84353
     63       0.00000           0.508233           13.82974
     64       0.00000           0.518675           14.11386
     65       0.00000           0.539085           14.66924
     66       0.00000           0.560003           15.23845
     67       0.00000           0.575919           15.67156
     68       0.00000           0.632878           17.22149
     69       0.00000           0.654835           17.81896
     70       0.00000           0.673773           18.33429
     71       0.00000           0.745763           20.29324
     72       0.00000           0.759191           20.65863
     73       0.00000           0.775565           21.10419

  Highest occupied state (VBM) at     -2.89368046 eV
  | Occupation number:      1.00000001

  Lowest unoccupied state (CBM) at    -2.03987924 eV
  | Occupation number:      0.00000000

  Overall HOMO-LUMO gap:      0.85380122 eV.
  Calculating total energy contributions from superposition of free atom densities.

  Total energy components:
  | Sum of eigenvalues            :        -174.19545113 Ha       -4740.09939889 eV
  | XC energy correction          :         -36.80856242 Ha       -1001.61194503 eV
  | XC potential correction       :          47.04350101 Ha        1280.11879412 eV
  | Free-atom electrostatic energy:        -142.95312952 Ha       -3889.95257279 eV
  | Hartree energy correction     :           0.00000000 Ha           0.00000000 eV
  | van der Waals energy corr.    :           0.00000000 Ha           0.00000000 eV
  | Entropy correction            :          -0.00010367 Ha          -0.00282095 eV
  | ---------------------------
  | Total energy                  :        -306.91364207 Ha       -8351.54512258 eV
  | Total energy, T -> 0          :        -306.91374574 Ha       -8351.54794353 eV  <-- do not rely on this value for anything but (periodic) metals
  | Electronic free energy        :        -306.91384940 Ha       -8351.55076448 eV

  Derived energy quantities:
  | Kinetic energy                :         304.00219675 Ha        8272.32066450 eV
  | Electrostatic energy          :        -574.10727639 Ha      -15622.25384206 eV
  | Energy correction for multipole
  | error in Hartree potential    :           0.00000000 Ha           0.00000000 eV
  | Sum of eigenvalues per atom                           :        -364.62303068 eV
  | Total energy (T->0) per atom                          :        -642.42676489 eV  <-- do not rely on this value for anything but (periodic) metals
  | Electronic free energy per atom                       :        -642.42698188 eV
  Initialize hartree_potential_storage
  Max. number of atoms included in rho_multipole:           13

  End scf initialization - timings             :  max(cpu_time)    wall_clock(cpu1)
  | Time for scf. initialization               :        1.516 s           1.515 s
  | Boundary condition initialization          :        0.000 s           0.000 s
  | Integration                                :        1.079 s           1.079 s
  | Solution of K.-S. eqns.                    :        0.137 s           0.136 s
  | Grid partitioning                          :        0.135 s           0.134 s
  | Preloading free-atom quantities on grid    :        0.013 s           0.014 s
  | Free-atom superposition energy             :        0.051 s           0.051 s
  | Total energy evaluation                    :        0.000 s           0.000 s
------------------------------------------------------------

------------------------------------------------------------
          Begin self-consistency iteration #    1

  Date     :  20150727, Time     :  125834.732
------------------------------------------------------------
  Evaluating new KS density.
  Integration grid: deviation in total charge (<rho> - N_e) =   9.510870E-09
  Pulay mixing of updated and previous charge densities.

  Evaluating partitioned Hartree potential by multipole expansion.
  | Analytical far-field extrapolation by fixed multipoles:
  | Hartree multipole sum: apparent total charge =  -0.766963E-06
  Summing up the Hartree potential.
  Time summed over all CPUs for potential: real work        1.923 s, elapsed        1.930 s
  | RMS charge density error from multipole expansion :   0.148021E-02

  Integrating Hamiltonian matrix: batch-based integration.
  Time summed over all CPUs for integration: real work        5.524 s, elapsed        5.606 s

  Updating Kohn-Sham eigenvalues, eigenvectors, occupation numbers, and Fermi level.
  Solving generalized eigenproblem
  Updating Kohn-Sham eigenvalues and eigenfunctions.
  Solving real generalised eigenvalue problem by standard LAPACK (fast)
  Determining occupation numbers for Kohn-Sham eigenstates.
  | Chemical potential (Fermi level) in eV                 : -.26885113E+01
  | Error in electron count due to remaining E_F inaccuracy: 0.20458586E-08
  | Maximum occupation number of highest empty state:  0.00E+00

  Writing Kohn-Sham eigenvalues.

  State    Occupation    Eigenvalue [Ha]    Eigenvalue [eV]
      1       2.00000         -19.010816         -517.31061
      2       2.00000         -18.989423         -516.72850
      3       2.00000         -18.973527         -516.29594
      4       2.00000         -18.957212         -515.85200
      5       2.00000          -1.096452          -29.83597
      6       2.00000          -1.078670          -29.35210
      7       2.00000          -1.048078          -28.51967
      8       2.00000          -1.039681          -28.29115
      9       2.00000          -0.623990          -16.97963
     10       2.00000          -0.616309          -16.77061
     11       2.00000          -0.581520          -15.82397
     12       2.00000          -0.578691          -15.74700
     13       2.00000          -0.568921          -15.48111
     14       2.00000          -0.491145          -13.36473
     15       2.00000          -0.475765          -12.94623
     16       2.00000          -0.462114          -12.57476
     17       2.00000          -0.456007          -12.40860
     18       2.00000          -0.413139          -11.24209
     19       2.00000          -0.400898          -10.90900
     20       2.00000          -0.381802          -10.38935
     21       1.00000          -0.098801           -2.68851
     22       0.00000          -0.067869           -1.84682
     23       0.00000          -0.049859           -1.35673
     24       0.00000          -0.037771           -1.02781
     25       0.00000          -0.021632           -0.58864
     26       0.00000           0.005417            0.14740
     27       0.00000           0.041907            1.14035
     28       0.00000           0.050096            1.36319
     29       0.00000           0.053972            1.46864
     30       0.00000           0.067825            1.84561
     31       0.00000           0.085460            2.32550
     32       0.00000           0.092579            2.51922
     33       0.00000           0.102406            2.78662
     34       0.00000           0.107937            2.93713
     35       0.00000           0.111635            3.03774
     36       0.00000           0.120922            3.29046
     37       0.00000           0.130591            3.55357
     38       0.00000           0.145782            3.96694
     39       0.00000           0.154134            4.19420
     40       0.00000           0.161042            4.38218
     41       0.00000           0.167873            4.56805
     42       0.00000           0.188627            5.13281
     43       0.00000           0.213439            5.80796
     44       0.00000           0.232279            6.32063
     45       0.00000           0.235357            6.40439
     46       0.00000           0.246681            6.71254
     47       0.00000           0.257208            6.99899
     48       0.00000           0.281747            7.66672
     49       0.00000           0.299081            8.13840
     50       0.00000           0.314345            8.55377
     51       0.00000           0.351890            9.57542
     52       0.00000           0.361930            9.84861
     53       0.00000           0.374423           10.18856
     54       0.00000           0.379283           10.32080
     55       0.00000           0.386904           10.52821
     56       0.00000           0.394127           10.72474
     57       0.00000           0.404161           10.99779
     58       0.00000           0.427260           11.62633
     59       0.00000           0.445757           12.12965
     60       0.00000           0.465648           12.67092
     61       0.00000           0.475569           12.94089
     62       0.00000           0.481754           13.10920
     63       0.00000           0.519578           14.13843
     64       0.00000           0.530392           14.43270
     65       0.00000           0.546697           14.87638
     66       0.00000           0.570278           15.51805
     67       0.00000           0.584768           15.91235
     68       0.00000           0.643183           17.50189
     69       0.00000           0.663567           18.05659
     70       0.00000           0.683824           18.60780
     71       0.00000           0.754025           20.51806
     72       0.00000           0.769250           20.93236
     73       0.00000           0.787226           21.42151

  Highest occupied state (VBM) at     -2.68851131 eV
  | Occupation number:      1.00000000

  Lowest unoccupied state (CBM) at    -1.84682000 eV
  | Occupation number:      0.00000000

  Overall HOMO-LUMO gap:      0.84169131 eV.

  Total energy components:
  | Sum of eigenvalues            :        -172.58712189 Ha       -4696.33453350 eV
  | XC energy correction          :         -36.98196627 Ha       -1006.33050362 eV
  | XC potential correction       :          47.26992928 Ha        1286.28022102 eV
  | Free-atom electrostatic energy:        -142.95312952 Ha       -3889.95257279 eV
  | Hartree energy correction     :          -1.56659587 Ha         -42.62924247 eV
  | van der Waals energy corr.    :           0.00000000 Ha           0.00000000 eV
  | Entropy correction            :          -0.00010367 Ha          -0.00282095 eV
  | ---------------------------
  | Total energy                  :        -306.81888426 Ha       -8348.96663137 eV
  | Total energy, T -> 0          :        -306.81898792 Ha       -8348.96945232 eV  <-- do not rely on this value for anything but (periodic) metals
  | Electronic free energy        :        -306.81909159 Ha       -8348.97227326 eV

  Derived energy quantities:
  | Kinetic energy                :         305.06073487 Ha        8301.12495238 eV
  | Electrostatic energy          :        -574.89765286 Ha      -15643.76108012 eV
  | Energy correction for multipole
  | error in Hartree potential    :           0.00042994 Ha           0.01169932 eV
  | Sum of eigenvalues per atom                           :        -361.25650258 eV
  | Total energy (T->0) per atom                          :        -642.22841941 eV  <-- do not rely on this value for anything but (periodic) metals
  | Electronic free energy per atom                       :        -642.22863640 eV

  Self-consistency convergence accuracy:
  | Change of charge density      : 0.5603E+00
  | Change of sum of eigenvalues  : 0.4376E+02 eV
  | Change of total energy        : 0.2578E+01 eV

  End self-consistency iteration #     1       :  max(cpu_time)    wall_clock(cpu1)
  | Time for this iteration                    :        1.462 s           1.463 s
  | Charge density update                      :        0.474 s           0.475 s
  | Density mixing                             :        0.002 s           0.003 s
  | Hartree multipole update                   :        0.005 s           0.004 s
  | Hartree multipole summation                :        0.242 s           0.242 s
  | Integration                                :        0.702 s           0.702 s
  | Solution of K.-S. eqns.                    :        0.036 s           0.036 s
  | Total energy evaluation                    :        0.000 s           0.001 s
------------------------------------------------------------

------------------------------------------------------------
          Begin self-consistency iteration #    2

  Date     :  20150727, Time     :  125836.195
------------------------------------------------------------
  Evaluating new KS density.
  Integration grid: deviation in total charge (<rho> - N_e) =   2.045866E-09
  Pulay mixing of updated and previous charge densities.

  Evaluating partitioned Hartree potential by multipole expansion.
  | Analytical far-field extrapolation by fixed multipoles:
  | Hartree multipole sum: apparent total charge =  -0.271641E-05
  Summing up the Hartree potential.
  Time summed over all CPUs for potential: real work        1.923 s, elapsed        1.930 s
  | RMS charge density error from multipole expansion :   0.597098E-02

  Integrating Hamiltonian matrix: batch-based integration.
  Time summed over all CPUs for integration: real work        5.503 s, elapsed        5.591 s

  Updating Kohn-Sham eigenvalues, eigenvectors, occupation numbers, and Fermi level.
  Solving generalized eigenproblem
  Updating Kohn-Sham eigenvalues and eigenfunctions.
  Solving real generalised eigenvalue problem by standard LAPACK (fast)
  Determining occupation numbers for Kohn-Sham eigenstates.
  | Chemical potential (Fermi level) in eV                 : -.22301016E+01
  | Error in electron count due to remaining E_F inaccuracy: 0.00000000E+00
  | Maximum occupation number of highest empty state:  0.00E+00

  Highest occupied state (VBM) at     -2.23010158 eV
  | Occupation number:      1.00000000

  Lowest unoccupied state (CBM) at    -2.23010158 eV
  | Occupation number:      1.00000000

  Overall HOMO-LUMO gap:      0.00000000 eV.

  Total energy components:
  | Sum of eigenvalues            :        -168.78584288 Ha       -4592.89646878 eV
  | XC energy correction          :         -37.41301317 Ha       -1018.05988654 eV
  | XC potential correction       :          47.83148389 Ha        1301.56089940 eV
  | Free-atom electrostatic energy:        -142.95312952 Ha       -3889.95257279 eV
  | Hartree energy correction     :          -5.39229391 Ha        -146.73178303 eV
  | van der Waals energy corr.    :           0.00000000 Ha           0.00000000 eV
  | Entropy correction            :          -0.00010367 Ha          -0.00282095 eV
  | ---------------------------
  | Total energy                  :        -306.71279559 Ha       -8346.07981175 eV
  | Total energy, T -> 0          :        -306.71289925 Ha       -8346.08263270 eV  <-- do not rely on this value for anything but (periodic) metals
  | Electronic free energy        :        -306.71300292 Ha       -8346.08545365 eV

  Derived energy quantities:
  | Kinetic energy                :         307.23650289 Ha        8360.33061252 eV
  | Electrostatic energy          :        -576.53628531 Ha      -15688.35053773 eV
  | Energy correction for multipole
  | error in Hartree potential    :           0.00100391 Ha           0.02731768 eV
  | Sum of eigenvalues per atom                           :        -353.29972837 eV
  | Total energy (T->0) per atom                          :        -642.00635636 eV  <-- do not rely on this value for anything but (periodic) metals
  | Electronic free energy per atom                       :        -642.00657336 eV

  Self-consistency convergence accuracy:
  | Change of charge density      : 0.4254E+00
  | Change of sum of eigenvalues  : 0.1034E+03 eV
  | Change of total energy        : 0.2887E+01 eV

  End self-consistency iteration #     2       :  max(cpu_time)    wall_clock(cpu1)
  | Time for this iteration                    :        1.458 s           1.458 s
  | Charge density update                      :        0.471 s           0.471 s
  | Density mixing                             :        0.005 s           0.005 s
  | Hartree multipole update                   :        0.004 s           0.004 s
  | Hartree multipole summation                :        0.242 s           0.242 s
  | Integration                                :        0.700 s           0.700 s
  | Solution of K.-S. eqns.                    :        0.036 s           0.036 s
  | Total energy evaluation                    :        0.000 s           0.000 s
------------------------------------------------------------

------------------------------------------------------------
          Begin self-consistency iteration #    3

  Date     :  20150727, Time     :  125837.653
------------------------------------------------------------
  Evaluating new KS density.
  Integration grid: deviation in total charge (<rho> - N_e) =   1.421085E-14
  Pulay mixing of updated and previous charge densities.

  Evaluating partitioned Hartree potential by multipole expansion.
  | Analytical far-field extrapolation by fixed multipoles:
  | Hartree multipole sum: apparent total charge =  -0.258455E-05
  Summing up the Hartree potential.
  Time summed over all CPUs for potential: real work        1.923 s, elapsed        1.930 s
  | RMS charge density error from multipole expansion :   0.124941E-01

  Integrating Hamiltonian matrix: batch-based integration.
  Time summed over all CPUs for integration: real work        5.504 s, elapsed        5.581 s

  Updating Kohn-Sham eigenvalues, eigenvectors, occupation numbers, and Fermi level.
  Solving generalized eigenproblem
  Updating Kohn-Sham eigenvalues and eigenfunctions.
  Solving real generalised eigenvalue problem by standard LAPACK (fast)
  Determining occupation numbers for Kohn-Sham eigenstates.
  | Chemical potential (Fermi level) in eV                 : -.23029561E+01
  | Error in electron count due to remaining E_F inaccuracy: 0.00000000E+00
  | Maximum occupation number of highest empty state:  0.00E+00

  Highest occupied state (VBM) at     -2.30295607 eV
  | Occupation number:      1.00000000

  Lowest unoccupied state (CBM) at    -2.30295607 eV
  | Occupation number:      1.00000000

  Overall HOMO-LUMO gap:      0.00000000 eV.

  Total energy components:
  | Sum of eigenvalues            :        -169.08220036 Ha       -4600.96076621 eV
  | XC energy correction          :         -37.40372083 Ha       -1017.80702930 eV
  | XC potential correction       :          47.81183086 Ha        1301.02611314 eV
  | Free-atom electrostatic energy:        -142.95312952 Ha       -3889.95257279 eV
  | Hartree energy correction     :          -5.08412011 Ha        -138.34594726 eV
  | van der Waals energy corr.    :           0.00000000 Ha           0.00000000 eV
  | Entropy correction            :          -0.00010367 Ha          -0.00282095 eV
  | ---------------------------
  | Total energy                  :        -306.71133997 Ha       -8346.04020242 eV
  | Total energy, T -> 0          :        -306.71144364 Ha       -8346.04302337 eV  <-- do not rely on this value for anything but (periodic) metals
  | Electronic free energy        :        -306.71154731 Ha       -8346.04584431 eV

  Derived energy quantities:
  | Kinetic energy                :         305.77448822 Ha        8320.54716937 eV
  | Electrostatic energy          :        -575.08210736 Ha      -15648.78034249 eV
  | Energy correction for multipole
  | error in Hartree potential    :          -0.00174977 Ha          -0.04761374 eV
  | Sum of eigenvalues per atom                           :        -353.92005894 eV
  | Total energy (T->0) per atom                          :        -642.00330949 eV  <-- do not rely on this value for anything but (periodic) metals
  | Electronic free energy per atom                       :        -642.00352649 eV

  Self-consistency convergence accuracy:
  | Change of charge density      : 0.2107E+00
  | Change of sum of eigenvalues  : -.8064E+01 eV
  | Change of total energy        : 0.3961E-01 eV

  End self-consistency iteration #     3       :  max(cpu_time)    wall_clock(cpu1)
  | Time for this iteration                    :        1.455 s           1.455 s
  | Charge density update                      :        0.468 s           0.468 s
  | Density mixing                             :        0.006 s           0.006 s
  | Hartree multipole update                   :        0.004 s           0.004 s
  | Hartree multipole summation                :        0.242 s           0.242 s
  | Integration                                :        0.699 s           0.699 s
  | Solution of K.-S. eqns.                    :        0.035 s           0.035 s
  | Total energy evaluation                    :        0.000 s           0.001 s
------------------------------------------------------------

------------------------------------------------------------
          Begin self-consistency iteration #    4

  Date     :  20150727, Time     :  125839.108
------------------------------------------------------------
  Evaluating new KS density.
  Integration grid: deviation in total charge (<rho> - N_e) =   2.131628E-14
  Pulay mixing of updated and previous charge densities.

  Evaluating partitioned Hartree potential by multipole expansion.
  | Analytical far-field extrapolation by fixed multipoles:
  | Hartree multipole sum: apparent total charge =  -0.299363E-05
  Summing up the Hartree potential.
  Time summed over all CPUs for potential: real work        1.922 s, elapsed        1.930 s
  | RMS charge density error from multipole expansion :   0.154945E-01

  Integrating Hamiltonian matrix: batch-based integration.
  Time summed over all CPUs for integration: real work        5.496 s, elapsed        5.571 s

  Updating Kohn-Sham eigenvalues, eigenvectors, occupation numbers, and Fermi level.
  Solving generalized eigenproblem
  Updating Kohn-Sham eigenvalues and eigenfunctions.
  Solving real generalised eigenvalue problem by standard LAPACK (fast)
  Determining occupation numbers for Kohn-Sham eigenstates.
  | Chemical potential (Fermi level) in eV                 : -.21933398E+01
  | Error in electron count due to remaining E_F inaccuracy: 0.00000000E+00
  | Maximum occupation number of highest empty state:  0.00E+00

  Highest occupied state (VBM) at     -2.19333981 eV
  | Occupation number:      1.00000000

  Lowest unoccupied state (CBM) at    -2.19333981 eV
  | Occupation number:      1.00000000

  Overall HOMO-LUMO gap:      0.00000000 eV.

  Total energy components:
  | Sum of eigenvalues            :        -168.21709934 Ha       -4577.42016955 eV
  | XC energy correction          :         -37.52143487 Ha       -1021.01019111 eV
  | XC potential correction       :          47.96322196 Ha        1305.14567458 eV
  | Free-atom electrostatic energy:        -142.95312952 Ha       -3889.95257279 eV
  | Hartree energy correction     :          -5.97838921 Ha        -162.68024737 eV
  | van der Waals energy corr.    :           0.00000000 Ha           0.00000000 eV
  | Entropy correction            :          -0.00010367 Ha          -0.00282095 eV
  | ---------------------------
  | Total energy                  :        -306.70683097 Ha       -8345.91750623 eV
  | Total energy, T -> 0          :        -306.70693464 Ha       -8345.92032718 eV  <-- do not rely on this value for anything but (periodic) metals
  | Electronic free energy        :        -306.70703830 Ha       -8345.92314813 eV

  Derived energy quantities:
  | Kinetic energy                :         305.88844567 Ha        8323.64810935 eV
  | Electrostatic energy          :        -575.07384178 Ha      -15648.55542448 eV
  | Energy correction for multipole
  | error in Hartree potential    :          -0.00242925 Ha          -0.06610321 eV
  | Sum of eigenvalues per atom                           :        -352.10924381 eV
  | Total energy (T->0) per atom                          :        -641.99387132 eV  <-- do not rely on this value for anything but (periodic) metals
  | Electronic free energy per atom                       :        -641.99408832 eV

  Self-consistency convergence accuracy:
  | Change of charge density      : 0.9518E-01
  | Change of sum of eigenvalues  : 0.2354E+02 eV
  | Change of total energy        : 0.1227E+00 eV

  End self-consistency iteration #     4       :  max(cpu_time)    wall_clock(cpu1)
  | Time for this iteration                    :        1.455 s           1.455 s
  | Charge density update                      :        0.469 s           0.468 s
  | Density mixing                             :        0.007 s           0.007 s
  | Hartree multipole update                   :        0.004 s           0.005 s
  | Hartree multipole summation                :        0.242 s           0.242 s
  | Integration                                :        0.697 s           0.697 s
  | Solution of K.-S. eqns.                    :        0.035 s           0.036 s
  | Total energy evaluation                    :        0.000 s           0.000 s
------------------------------------------------------------

------------------------------------------------------------
          Begin self-consistency iteration #    5

  Date     :  20150727, Time     :  125840.563
------------------------------------------------------------
  Evaluating new KS density.
  Integration grid: deviation in total charge (<rho> - N_e) =   0.000000E+00
  Pulay mixing of updated and previous charge densities.

  Evaluating partitioned Hartree potential by multipole expansion.
  | Analytical far-field extrapolation by fixed multipoles:
  | Hartree multipole sum: apparent total charge =  -0.297066E-05
  Summing up the Hartree potential.
  Time summed over all CPUs for potential: real work        1.922 s, elapsed        1.929 s
  | RMS charge density error from multipole expansion :   0.158373E-01

  Integrating Hamiltonian matrix: batch-based integration.
  Time summed over all CPUs for integration: real work        5.496 s, elapsed        5.582 s

  Updating Kohn-Sham eigenvalues, eigenvectors, occupation numbers, and Fermi level.
  Solving generalized eigenproblem
  Updating Kohn-Sham eigenvalues and eigenfunctions.
  Solving real generalised eigenvalue problem by standard LAPACK (fast)
  Determining occupation numbers for Kohn-Sham eigenstates.
  | Chemical potential (Fermi level) in eV                 : -.21570478E+01
  | Error in electron count due to remaining E_F inaccuracy: 0.00000000E+00
  | Maximum occupation number of highest empty state:  0.00E+00

  Highest occupied state (VBM) at     -2.15704778 eV
  | Occupation number:      1.00000000

  Lowest unoccupied state (CBM) at    -2.15704778 eV
  | Occupation number:      1.00000000

  Overall HOMO-LUMO gap:      0.00000000 eV.

  Total energy components:
  | Sum of eigenvalues            :        -168.16625384 Ha       -4576.03659325 eV
  | XC energy correction          :         -37.53026106 Ha       -1021.25036403 eV
  | XC potential correction       :          47.97445810 Ha        1305.45142543 eV
  | Free-atom electrostatic energy:        -142.95312952 Ha       -3889.95257279 eV
  | Hartree energy correction     :          -6.03146443 Ha        -164.12449771 eV
  | van der Waals energy corr.    :           0.00000000 Ha           0.00000000 eV
  | Entropy correction            :          -0.00010367 Ha          -0.00282095 eV
  | ---------------------------
  | Total energy                  :        -306.70665075 Ha       -8345.91260236 eV
  | Total energy, T -> 0          :        -306.70675442 Ha       -8345.91542331 eV  <-- do not rely on this value for anything but (periodic) metals
  | Electronic free energy        :        -306.70685809 Ha       -8345.91824426 eV

  Derived energy quantities:
  | Kinetic energy                :         305.90915832 Ha        8324.21172916 eV
  | Electrostatic energy          :        -575.08554802 Ha      -15648.87396749 eV
  | Energy correction for multipole
  | error in Hartree potential    :          -0.00252814 Ha          -0.06879418 eV
  | Sum of eigenvalues per atom                           :        -352.00281487 eV
  | Total energy (T->0) per atom                          :        -641.99349410 eV  <-- do not rely on this value for anything but (periodic) metals
  | Electronic free energy per atom                       :        -641.99371110 eV

  Self-consistency convergence accuracy:
  | Change of charge density      : 0.1839E-01
  | Change of sum of eigenvalues  : 0.1384E+01 eV
  | Change of total energy        : 0.4904E-02 eV

  End self-consistency iteration #     5       :  max(cpu_time)    wall_clock(cpu1)
  | Time for this iteration                    :        1.457 s           1.457 s
  | Charge density update                      :        0.468 s           0.468 s
  | Density mixing                             :        0.008 s           0.008 s
  | Hartree multipole update                   :        0.004 s           0.005 s
  | Hartree multipole summation                :        0.242 s           0.242 s
  | Integration                                :        0.699 s           0.698 s
  | Solution of K.-S. eqns.                    :        0.036 s           0.036 s
  | Total energy evaluation                    :        0.000 s           0.000 s
------------------------------------------------------------

------------------------------------------------------------
          Begin self-consistency iteration #    6

  Date     :  20150727, Time     :  125842.020
------------------------------------------------------------
  Evaluating new KS density.
  Integration grid: deviation in total charge (<rho> - N_e) =   2.131628E-14
  Pulay mixing of updated and previous charge densities.

  Evaluating partitioned Hartree potential by multipole expansion.
  | Analytical far-field extrapolation by fixed multipoles:
  | Hartree multipole sum: apparent total charge =  -0.295309E-05
  Summing up the Hartree potential.
  Time summed over all CPUs for potential: real work        1.922 s, elapsed        1.930 s
  | RMS charge density error from multipole expansion :   0.160287E-01

  Integrating Hamiltonian matrix: batch-based integration.
  Time summed over all CPUs for integration: real work        5.501 s, elapsed        5.587 s

  Updating Kohn-Sham eigenvalues, eigenvectors, occupation numbers, and Fermi level.
  Solving generalized eigenproblem
  Updating Kohn-Sham eigenvalues and eigenfunctions.
  Solving real generalised eigenvalue problem by standard LAPACK (fast)
  Determining occupation numbers for Kohn-Sham eigenstates.
  | Chemical potential (Fermi level) in eV                 : -.21589030E+01
  | Error in electron count due to remaining E_F inaccuracy: 0.42632564E-11
  | Maximum occupation number of highest empty state:  0.00E+00

  Highest occupied state (VBM) at     -2.15890296 eV
  | Occupation number:      1.00000000

  Lowest unoccupied state (CBM) at    -1.35411233 eV
  | Occupation number:      0.00000000

  Overall HOMO-LUMO gap:      0.80479064 eV.

  Total energy components:
  | Sum of eigenvalues            :        -168.19630004 Ha       -4576.85419174 eV
  | XC energy correction          :         -37.52885022 Ha       -1021.21197315 eV
  | XC potential correction       :          47.97232244 Ha        1305.39331116 eV
  | Free-atom electrostatic energy:        -142.95312952 Ha       -3889.95257279 eV
  | Hartree energy correction     :          -6.00069084 Ha        -163.28710581 eV
  | van der Waals energy corr.    :           0.00000000 Ha           0.00000000 eV
  | Entropy correction            :          -0.00010367 Ha          -0.00282095 eV
  | ---------------------------
  | Total energy                  :        -306.70664818 Ha       -8345.91253234 eV
  | Total energy, T -> 0          :        -306.70675185 Ha       -8345.91535328 eV  <-- do not rely on this value for anything but (periodic) metals
  | Electronic free energy        :        -306.70685552 Ha       -8345.91817423 eV

  Derived energy quantities:
  | Kinetic energy                :         305.90298020 Ha        8324.04361399 eV
  | Electrostatic energy          :        -575.08077816 Ha      -15648.74417318 eV
  | Energy correction for multipole
  | error in Hartree potential    :          -0.00263867 Ha          -0.07180184 eV
  | Sum of eigenvalues per atom                           :        -352.06570706 eV
  | Total energy (T->0) per atom                          :        -641.99348871 eV  <-- do not rely on this value for anything but (periodic) metals
  | Electronic free energy per atom                       :        -641.99370571 eV

  Self-consistency convergence accuracy:
  | Change of charge density      : 0.9360E-02
  | Change of sum of eigenvalues  : -.8176E+00 eV
  | Change of total energy        : 0.7002E-04 eV

  End self-consistency iteration #     6       :  max(cpu_time)    wall_clock(cpu1)
  | Time for this iteration                    :        1.459 s           1.459 s
  | Charge density update                      :        0.468 s           0.467 s
  | Density mixing                             :        0.009 s           0.010 s
  | Hartree multipole update                   :        0.005 s           0.004 s
  | Hartree multipole summation                :        0.242 s           0.242 s
  | Integration                                :        0.699 s           0.699 s
  | Solution of K.-S. eqns.                    :        0.035 s           0.036 s
  | Total energy evaluation                    :        0.000 s           0.000 s
------------------------------------------------------------

------------------------------------------------------------
          Begin self-consistency iteration #    7

  Date     :  20150727, Time     :  125843.479
------------------------------------------------------------
  Evaluating new KS density.
  Integration grid: deviation in total charge (<rho> - N_e) =   4.277467E-12
  Pulay mixing of updated and previous charge densities.

  Evaluating partitioned Hartree potential by multipole expansion.
  | Analytical far-field extrapolation by fixed multipoles:
  | Hartree multipole sum: apparent total charge =  -0.290247E-05
  Summing up the Hartree potential.
  Time summed over all CPUs for potential: real work        1.922 s, elapsed        1.929 s
  | RMS charge density error from multipole expansion :   0.160860E-01

  Integrating Hamiltonian matrix: batch-based integration.
  Time summed over all CPUs for integration: real work        5.498 s, elapsed        5.593 s

  Updating Kohn-Sham eigenvalues, eigenvectors, occupation numbers, and Fermi level.
  Solving generalized eigenproblem
  Updating Kohn-Sham eigenvalues and eigenfunctions.
  Solving real generalised eigenvalue problem by standard LAPACK (fast)
  Determining occupation numbers for Kohn-Sham eigenstates.
  | Chemical potential (Fermi level) in eV                 : -.21717849E+01
  | Error in electron count due to remaining E_F inaccuracy: -.42318646E-08
  | Maximum occupation number of highest empty state:  0.00E+00

  Highest occupied state (VBM) at     -6.41016327 eV
  | Occupation number:      2.00000000

  Lowest unoccupied state (CBM) at    -2.17178487 eV
  | Occupation number:      1.00000000

  Overall HOMO-LUMO gap:      4.23837840 eV.

  Total energy components:
  | Sum of eigenvalues            :        -168.23077329 Ha       -4577.79225663 eV
  | XC energy correction          :         -37.52618626 Ha       -1021.13948317 eV
  | XC potential correction       :          47.96863528 Ha        1305.29297843 eV
  | Free-atom electrostatic energy:        -142.95312952 Ha       -3889.95257279 eV
  | Hartree energy correction     :          -5.96517655 Ha        -162.32071276 eV
  | van der Waals energy corr.    :           0.00000000 Ha           0.00000000 eV
  | Entropy correction            :          -0.00010367 Ha          -0.00282095 eV
  | ---------------------------
  | Total energy                  :        -306.70663034 Ha       -8345.91204693 eV
  | Total energy, T -> 0          :        -306.70673401 Ha       -8345.91486788 eV  <-- do not rely on this value for anything but (periodic) metals
  | Electronic free energy        :        -306.70683768 Ha       -8345.91768882 eV

  Derived energy quantities:
  | Kinetic energy                :         305.92850381 Ha        8324.73814669 eV
  | Electrostatic energy          :        -575.10894789 Ha      -15649.51071044 eV
  | Energy correction for multipole
  | error in Hartree potential    :          -0.00271250 Ha          -0.07381098 eV
  | Sum of eigenvalues per atom                           :        -352.13786589 eV
  | Total energy (T->0) per atom                          :        -641.99345138 eV  <-- do not rely on this value for anything but (periodic) metals
  | Electronic free energy per atom                       :        -641.99366837 eV

  Self-consistency convergence accuracy:
  | Change of charge density      : 0.6378E-02
  | Change of sum of eigenvalues  : -.9381E+00 eV
  | Change of total energy        : 0.4854E-03 eV

  End self-consistency iteration #     7       :  max(cpu_time)    wall_clock(cpu1)
  | Time for this iteration                    :        1.460 s           1.460 s
  | Charge density update                      :        0.467 s           0.467 s
  | Density mixing                             :        0.010 s           0.010 s
  | Hartree multipole update                   :        0.004 s           0.004 s
  | Hartree multipole summation                :        0.242 s           0.242 s
  | Integration                                :        0.700 s           0.700 s
  | Solution of K.-S. eqns.                    :        0.036 s           0.036 s
  | Total energy evaluation                    :        0.000 s           0.000 s
------------------------------------------------------------

------------------------------------------------------------
          Begin self-consistency iteration #    8

  Date     :  20150727, Time     :  125844.939
------------------------------------------------------------
  Evaluating new KS density.
  Integration grid: deviation in total charge (<rho> - N_e) =  -4.231850E-09
  Pulay mixing of updated and previous charge densities.

  Evaluating partitioned Hartree potential by multipole expansion.
  | Analytical far-field extrapolation by fixed multipoles:
  | Hartree multipole sum: apparent total charge =  -0.282416E-05
  Summing up the Hartree potential.
  Time summed over all CPUs for potential: real work        1.922 s, elapsed        1.929 s
  | RMS charge density error from multipole expansion :   0.161092E-01

  Integrating Hamiltonian matrix: batch-based integration.
  Time summed over all CPUs for integration: real work        5.492 s, elapsed        5.575 s

  Updating Kohn-Sham eigenvalues, eigenvectors, occupation numbers, and Fermi level.
  Solving generalized eigenproblem
  Updating Kohn-Sham eigenvalues and eigenfunctions.
  Solving real generalised eigenvalue problem by standard LAPACK (fast)
  Determining occupation numbers for Kohn-Sham eigenstates.
  | Chemical potential (Fermi level) in eV                 : -.21778605E+01
  | Error in electron count due to remaining E_F inaccuracy: 0.85265128E-13
  | Maximum occupation number of highest empty state:  0.00E+00

  Highest occupied state (VBM) at     -2.17786048 eV
  | Occupation number:      1.00000000

  Lowest unoccupied state (CBM) at    -1.36453570 eV
  | Occupation number:      0.00000000

  Overall HOMO-LUMO gap:      0.81332477 eV.

  Total energy components:
  | Sum of eigenvalues            :        -168.26566593 Ha       -4578.74173383 eV
  | XC energy correction          :         -37.52291766 Ha       -1021.05053990 eV
  | XC potential correction       :          47.96424269 Ha        1305.17345004 eV
  | Free-atom electrostatic energy:        -142.95312952 Ha       -3889.95257279 eV
  | Hartree energy correction     :          -5.92915473 Ha        -161.34050924 eV
  | van der Waals energy corr.    :           0.00000000 Ha           0.00000000 eV
  | Entropy correction            :          -0.00010367 Ha          -0.00282095 eV
  | ---------------------------
  | Total energy                  :        -306.70662515 Ha       -8345.91190572 eV
  | Total energy, T -> 0          :        -306.70672882 Ha       -8345.91472667 eV  <-- do not rely on this value for anything but (periodic) metals
  | Electronic free energy        :        -306.70683249 Ha       -8345.91754762 eV

  Derived energy quantities:
  | Kinetic energy                :         305.93988875 Ha        8325.04794654 eV
  | Electrostatic energy          :        -575.12359624 Ha      -15649.90931236 eV
  | Energy correction for multipole
  | error in Hartree potential    :          -0.00276443 Ha          -0.07522396 eV
  | Sum of eigenvalues per atom                           :        -352.21090260 eV
  | Total energy (T->0) per atom                          :        -641.99344051 eV  <-- do not rely on this value for anything but (periodic) metals
  | Electronic free energy per atom                       :        -641.99365751 eV

  Self-consistency convergence accuracy:
  | Change of charge density      : 0.3252E-02
  | Change of sum of eigenvalues  : -.9495E+00 eV
  | Change of total energy        : 0.1412E-03 eV

  End self-consistency iteration #     8       :  max(cpu_time)    wall_clock(cpu1)
  | Time for this iteration                    :        1.459 s           1.459 s
  | Charge density update                      :        0.467 s           0.467 s
  | Density mixing                             :        0.012 s           0.012 s
  | Hartree multipole update                   :        0.004 s           0.004 s
  | Hartree multipole summation                :        0.242 s           0.242 s
  | Integration                                :        0.698 s           0.698 s
  | Solution of K.-S. eqns.                    :        0.036 s           0.035 s
  | Total energy evaluation                    :        0.000 s           0.001 s
------------------------------------------------------------

------------------------------------------------------------
          Begin self-consistency iteration #    9

  Date     :  20150727, Time     :  125846.398
------------------------------------------------------------
  Evaluating new KS density.
  Integration grid: deviation in total charge (<rho> - N_e) =   9.237056E-14
  Pulay mixing of updated and previous charge densities.

  Evaluating partitioned Hartree potential by multipole expansion.
  | Analytical far-field extrapolation by fixed multipoles:
  | Hartree multipole sum: apparent total charge =  -0.282027E-05
  Summing up the Hartree potential.
  Time summed over all CPUs for potential: real work        1.922 s, elapsed        1.930 s
  | RMS charge density error from multipole expansion :   0.161058E-01

  Integrating Hamiltonian matrix: batch-based integration.
  Time summed over all CPUs for integration: real work        5.498 s, elapsed        5.578 s

  Updating Kohn-Sham eigenvalues, eigenvectors, occupation numbers, and Fermi level.
  Solving generalized eigenproblem
  Updating Kohn-Sham eigenvalues and eigenfunctions.
  Solving real generalised eigenvalue problem by standard LAPACK (fast)
  Determining occupation numbers for Kohn-Sham eigenstates.
  | Chemical potential (Fermi level) in eV                 : -.21796608E+01
  | Error in electron count due to remaining E_F inaccuracy: 0.85265128E-13
  | Maximum occupation number of highest empty state:  0.00E+00

  Highest occupied state (VBM) at     -2.17966084 eV
  | Occupation number:      1.00000000

  Lowest unoccupied state (CBM) at    -1.36430301 eV
  | Occupation number:      0.00000000

  Overall HOMO-LUMO gap:      0.81535783 eV.

  Total energy components:
  | Sum of eigenvalues            :        -168.26605006 Ha       -4578.75218658 eV
  | XC energy correction          :         -37.52287520 Ha       -1021.04938472 eV
  | XC potential correction       :          47.96418334 Ha        1305.17183497 eV
  | Free-atom electrostatic energy:        -142.95312952 Ha       -3889.95257279 eV
  | Hartree energy correction     :          -5.92875304 Ha        -161.32957856 eV
  | van der Waals energy corr.    :           0.00000000 Ha           0.00000000 eV
  | Entropy correction            :          -0.00010367 Ha          -0.00282095 eV
  | ---------------------------
  | Total energy                  :        -306.70662449 Ha       -8345.91188769 eV
  | Total energy, T -> 0          :        -306.70672816 Ha       -8345.91470863 eV  <-- do not rely on this value for anything but (periodic) metals
  | Electronic free energy        :        -306.70683183 Ha       -8345.91752958 eV

  Derived energy quantities:
  | Kinetic energy                :         305.94240040 Ha        8325.11629208 eV
  | Electrostatic energy          :        -575.12614968 Ha      -15649.97879504 eV
  | Energy correction for multipole
  | error in Hartree potential    :          -0.00276726 Ha          -0.07530088 eV
  | Sum of eigenvalues per atom                           :        -352.21170666 eV
  | Total energy (T->0) per atom                          :        -641.99343913 eV  <-- do not rely on this value for anything but (periodic) metals
  | Electronic free energy per atom                       :        -641.99365612 eV

  Self-consistency convergence accuracy:
  | Change of charge density      : 0.9942E-03
  | Change of sum of eigenvalues  : -.1045E-01 eV
  | Change of total energy        : 0.1804E-04 eV

  End self-consistency iteration #     9       :  max(cpu_time)    wall_clock(cpu1)
  | Time for this iteration                    :        1.460 s           1.460 s
  | Charge density update                      :        0.467 s           0.467 s
  | Density mixing                             :        0.013 s           0.012 s
  | Hartree multipole update                   :        0.004 s           0.004 s
  | Hartree multipole summation                :        0.242 s           0.242 s
  | Integration                                :        0.699 s           0.698 s
  | Solution of K.-S. eqns.                    :        0.035 s           0.035 s
  | Total energy evaluation                    :        0.000 s           0.000 s
------------------------------------------------------------

------------------------------------------------------------
          Begin self-consistency iteration #   10

  Date     :  20150727, Time     :  125847.858
------------------------------------------------------------
  Evaluating new KS density.
  Integration grid: deviation in total charge (<rho> - N_e) =   9.947598E-14
[...]
  | Electronic free energy        :        -306.70923330 Ha       -8345.98287712 eV

  Derived energy quantities:
  | Kinetic energy                :         305.94550464 Ha        8325.20076280 eV
  | Electrostatic energy          :        -575.12912579 Ha      -15650.05977910 eV
  | Energy correction for multipole
  | error in Hartree potential    :          -0.00278421 Ha          -0.07576210 eV
  | Sum of eigenvalues per atom                           :        -352.20991872 eV
  | Total energy (T->0) per atom                          :        -641.99846586 eV  <-- do not rely on this value for anything but (periodic) metals
  | Electronic free energy per atom                       :        -641.99868286 eV

  atomic forces [eV/Ang]:
  -----------------------
  atom #    1
   Hellmann-Feynman + Multipole  : -.397046E+01 -.767608E+01 -.720879E+01
   Pulay + GGA                   : 0.215032E+01 0.872090E+01 0.651147E+01
   Van der Waals               : -.445835E-02 0.524422E-02 0.252040E-02
   ----------------------------------------------------------------
   Total forces(   1)            : -.182460E+01 0.105006E+01 -.694803E+00
  atom #    2
   Hellmann-Feynman + Multipole  : 0.718496E+00 -.136588E+01 0.612792E+00
   Pulay + GGA                   : -.852416E-01 0.999123E-01 -.749721E-01
   Van der Waals               : -.884697E-03 -.279809E-03 0.946367E-03
   ----------------------------------------------------------------
   Total forces(   2)            : 0.632370E+00 -.126625E+01 0.538766E+00
  atom #    3
   Hellmann-Feynman + Multipole  : 0.106055E+01 0.162614E+00 -.212240E-01
   Pulay + GGA                   : 0.804432E-01 0.104432E-02 0.231652E-01
   Van der Waals               : -.608932E-03 0.388659E-02 0.104561E-02
   ----------------------------------------------------------------
   Total forces(   3)            : 0.114038E+01 0.167545E+00 0.298680E-02
  atom #    4
   Hellmann-Feynman + Multipole  : -.519673E-02 0.988998E-02 -.384588E-01
   Pulay + GGA                   : -.290176E-01 -.347940E-01 0.169589E+00
   Van der Waals               : -.216349E-02 0.295090E-02 0.104685E-02
   ----------------------------------------------------------------
   Total forces(   4)            : -.363778E-01 -.219531E-01 0.132177E+00
  atom #    5
   Hellmann-Feynman + Multipole  : -.457138E+01 0.202011E+01 -.951430E+01
   Pulay + GGA                   : 0.626212E+01 -.246035E+01 0.103609E+02
   Van der Waals               : 0.401231E-02 0.153937E-02 -.343397E-02
   ----------------------------------------------------------------
   Total forces(   5)            : 0.169475E+01 -.438703E+00 0.843219E+00
  atom #    6
   Hellmann-Feynman + Multipole  : -.283158E+00 -.218551E+00 -.636123E+00
   Pulay + GGA                   : 0.311611E-01 0.420500E-01 0.749955E-01
   Van der Waals               : 0.730069E-02 0.284521E-02 0.815130E-03
   ----------------------------------------------------------------
   Total forces(   6)            : -.244696E+00 -.173655E+00 -.560312E+00
  atom #    7
   Hellmann-Feynman + Multipole  : -.147563E+01 0.741938E+00 -.358544E+00
   Pulay + GGA                   : 0.107314E+00 -.626780E-01 0.229924E-01
   Van der Waals               : 0.649505E-03 0.316927E-02 0.173477E-02
   ----------------------------------------------------------------
   Total forces(   7)            : -.136766E+01 0.682429E+00 -.333817E+00
  atom #    8
   Hellmann-Feynman + Multipole  : -.176738E+01 -.192597E+01 -.133324E+02
   Pulay + GGA                   : 0.270608E+01 0.212770E+01 0.115906E+02
   Van der Waals               : -.273169E-02 -.164820E-02 0.657713E-03
   ----------------------------------------------------------------
   Total forces(   8)            : 0.935975E+00 0.200080E+00 -.174124E+01
  atom #    9
   Hellmann-Feynman + Multipole  : -.141628E+00 -.406904E-01 0.422911E+00
   Pulay + GGA                   : 0.107301E+00 0.592291E-01 0.533656E-01
   Van der Waals               : -.172661E-02 -.226504E-02 -.276635E-02
   ----------------------------------------------------------------
   Total forces(   9)            : -.360537E-01 0.162737E-01 0.473510E+00
  atom #   10
   Hellmann-Feynman + Multipole  : -.624126E+00 -.263453E+00 0.135962E+01
   Pulay + GGA                   : -.744753E-01 -.576538E-01 0.101802E+00
   Van der Waals               : -.251772E-03 -.228116E-02 0.385252E-03
   ----------------------------------------------------------------
   Total forces(  10)            : -.698853E+00 -.323388E+00 0.146180E+01
  atom #   11
   Hellmann-Feynman + Multipole  : -.137814E+02 -.490841E+01 0.687839E+00
   Pulay + GGA                   : 0.145895E+02 0.645377E+01 -.143681E+01
   Van der Waals               : -.238169E-03 -.368024E-02 -.380505E-02
   ----------------------------------------------------------------
   Total forces(  11)            : 0.807881E+00 0.154168E+01 -.752779E+00
  atom #   12
   Hellmann-Feynman + Multipole  : -.370824E+00 -.237286E-01 -.208932E-01
   Pulay + GGA                   : 0.826904E-01 -.361118E-01 0.197690E-01
   Van der Waals               : -.162691E-02 -.402026E-02 -.180472E-02
   ----------------------------------------------------------------
   Total forces(  12)            : -.289760E+00 -.638606E-01 -.292890E-02
  atom #   13
   Hellmann-Feynman + Multipole  : -.779790E+00 -.147258E+01 0.677641E+00
   Pulay + GGA                   : 0.619590E-01 0.104750E+00 -.594416E-01
   Van der Waals               : 0.272812E-02 -.546087E-02 0.265800E-02
   ----------------------------------------------------------------
   Total forces(  13)            : -.715103E+00 -.137329E+01 0.620858E+00
  Timings for vdw_correction_hirshfeld (Tkatchenko-Scheffler 2009):
  | CPU time:        3.892 s, Wall clock time:        3.893 s.
  Removing unitary transformations (pure translations, rotations) from forces on atoms.
  Atomic forces before filtering:
  | Net force on center of mass :  -.175359E-02 -.302787E-02 -.125539E-01 eV/A
  | Net torque on center of mass:  0.110270E-01 -.646234E-02 -.112080E-01 eV
  Atomic forces after filtering:
  | Net force on center of mass :  0.446015E-15 -.178406E-15 0.000000E+00 eV/A
  | Net torque on center of mass:  0.000000E+00 0.377634E-15 -.377634E-15 eV
 
  Energy and forces in a compact form:
  | Total energy uncorrected      :         -0.834597723522768E+04 eV
  | Total energy corrected        :         -0.834598005617560E+04 eV  <-- do not rely on this value for anything but (periodic) metals
  | Electronic free energy        :         -0.834598287712352E+04 eV
  Total atomic forces (unitary forces cleaned) [eV/Ang]:
  |   1         -0.182426719882832E+01          0.104987300227782E+01         -0.693109345403455E+00
  |   2          0.632406388080033E+00         -0.126662693081538E+01          0.540408185407264E+00
  |   3          0.114066999148833E+01          0.167573578462621E+00          0.436142342239049E-02
  |   4         -0.357650542262978E-01         -0.220135929116952E-01          0.133979334806351E+00
  |   5          0.169491670815440E+01         -0.438377758281277E+00          0.844101151511978E+00
  |   6         -0.244452596397096E+00         -0.173151624461517E+00         -0.559581866167667E+00
  |   7         -0.136733727824377E+01          0.682954844640700E+00         -0.333033140425448E+00
  |   8          0.936244379830576E+00          0.200741201401705E+00         -0.174067752717463E+01
  |   9         -0.358048297378447E-01          0.171633778434470E-01          0.473759512467292E+00
  |  10         -0.698333157433427E+00         -0.322700335095680E+00          0.146257302027255E+01
  |  11          0.807491257300376E+00          0.154161468377373E+01         -0.751951632389632E+00
  |  12         -0.289980484792423E+00         -0.636770576324049E-01         -0.224796735908978E-02
  |  13         -0.715788125194535E+00         -0.137337338920208E+01          0.621418851032101E+00
 
  ------------------------------------ 
  Start decomposition of the XC Energy 
  ------------------------------------ 
  Hartree-Fock part   :          0.000000000 Ha              0.000000000 eV
  ------------------------------------ 
  X Energy            :        -36.194486791 Ha           -984.902096858 eV
  C Energy GGA        :         -1.328516459 Ha            -36.150772183 eV
  Total XC Energy     :        -37.523003250 Ha          -1021.052869041 eV
  LDA X and C from self-consistent density 
  X Energy LDA        :        -32.620528475 Ha           -887.649742922 eV
  C Energy LDA        :         -2.677430451 Ha            -72.856589480 eV
  ------------------------------------ 
  End decomposition of the XC Energy 
  ------------------------------------ 
  Performing Hirshfeld analysis of fragment charges and moments.
  ----------------------------------------------------------------------
  | Atom     1: O
  |   Hirshfeld charge        :     -0.12637774
  |   Free atom volume        :     23.95238533
  |   Hirshfeld volume        :     23.21888417
  |   Hirshfeld dipole vector :      0.02291359       0.03020590       0.01041477
  |   Hirshfeld dipole moment :      0.03931789
  |   Hirshfeld second moments:      0.04884630      -0.00570215      -0.00880139
  |                                 -0.00570215       0.01300610      -0.02771809
  |                                 -0.00880139      -0.02771809       0.03571640
  ----------------------------------------------------------------------
  | Atom     2: H
  |   Hirshfeld charge        :      0.08658947
  |   Free atom volume        :     10.44207651
  |   Hirshfeld volume        :     12.88515124
  |   Hirshfeld dipole vector :      0.02453212       0.01646089      -0.00994909
  |   Hirshfeld dipole moment :      0.03117323
  |   Hirshfeld second moments:     -0.02141203       0.02011891       0.00387820
  |                                  0.02011891      -0.01276182       0.00231037
  |                                  0.00387820       0.00231037      -0.01492393
  ----------------------------------------------------------------------
  | Atom     3: H
  |   Hirshfeld charge        :      0.09437690
  |   Free atom volume        :     10.44207651
  |   Hirshfeld volume        :     10.45408193
  |   Hirshfeld dipole vector :      0.01859203       0.01422736      -0.00372284
  |   Hirshfeld dipole moment :      0.02370529
  |   Hirshfeld second moments:      0.01212166      -0.01331038      -0.00220309
  |                                 -0.01331038       0.03842482       0.00757064
  |                                 -0.00220309       0.00757064       0.03496642
  ----------------------------------------------------------------------
  | Atom     4: H
  |   Hirshfeld charge        :      0.06051901
  |   Free atom volume        :     10.44207651
  |   Hirshfeld volume        :     15.35056550
  |   Hirshfeld dipole vector :      0.01630340       0.00650827      -0.01907687
  |   Hirshfeld dipole moment :      0.02592461
  |   Hirshfeld second moments:     -0.04483499       0.01597053       0.01895166
  |                                  0.01597053      -0.04186868      -0.00089076
  |                                  0.01895166      -0.00089076      -0.09529045
  ----------------------------------------------------------------------
  | Atom     5: O
  |   Hirshfeld charge        :     -0.23055455
  |   Free atom volume        :     23.95238533
  |   Hirshfeld volume        :     22.41250950
  |   Hirshfeld dipole vector :     -0.00830595      -0.01346942       0.02974788
  |   Hirshfeld dipole moment :      0.03369496
  |   Hirshfeld second moments:      0.05297973      -0.01915910       0.00780065
  |                                 -0.01915910       0.03229386       0.03756171
  |                                  0.00780065       0.03756171      -0.00980850
  ----------------------------------------------------------------------
  | Atom     6: H
  |   Hirshfeld charge        :      0.09151859
  |   Free atom volume        :     10.44207651
  |   Hirshfeld volume        :      9.59947931
  |   Hirshfeld dipole vector :      0.00809347       0.03190514       0.02923484
  |   Hirshfeld dipole moment :      0.04402407
  |   Hirshfeld second moments:      0.06910665      -0.00283475       0.00510512
  |                                 -0.00283475       0.04159389      -0.00418139
  |                                  0.00510512      -0.00418139       0.01791473
  ----------------------------------------------------------------------
  | Atom     7: H
  |   Hirshfeld charge        :      0.11941772
  |   Free atom volume        :     10.44207651
  |   Hirshfeld volume        :     10.17065495
  |   Hirshfeld dipole vector :      0.06533185      -0.04204333       0.00133592
  |   Hirshfeld dipole moment :      0.07770249
  |   Hirshfeld second moments:      0.04793559      -0.00002943       0.00180543
  |                                 -0.00002943       0.04669136       0.02239084
  |                                  0.00180543       0.02239084       0.03933997
  ----------------------------------------------------------------------
  | Atom     8: O
  |   Hirshfeld charge        :     -0.20629294
  |   Free atom volume        :     23.95238533
  |   Hirshfeld volume        :     21.20615283
  |   Hirshfeld dipole vector :     -0.00698860       0.01298624       0.00208911
  |   Hirshfeld dipole moment :      0.01489454
  |   Hirshfeld second moments:      0.07150128       0.02375297      -0.00798501
  |                                  0.02375297       0.04535819       0.00469297
  |                                 -0.00798501       0.00469297       0.06196503
  ----------------------------------------------------------------------
  | Atom     9: H
  |   Hirshfeld charge        :      0.13599657
  |   Free atom volume        :     10.44207651
  |   Hirshfeld volume        :      8.97590038
  |   Hirshfeld dipole vector :      0.06320847       0.05451793       0.01358260
  |   Hirshfeld dipole moment :      0.08456952
  |   Hirshfeld second moments:      0.06842599       0.00666120      -0.00854449
  |                                  0.00666120       0.06402518      -0.00272246
  |                                 -0.00854449      -0.00272246       0.07437388
  ----------------------------------------------------------------------
  | Atom    10: H
  |   Hirshfeld charge        :      0.11535473
  |   Free atom volume        :     10.44207651
  |   Hirshfeld volume        :     10.63824298
  |   Hirshfeld dipole vector :     -0.03870736       0.00178219       0.04180601
  |   Hirshfeld dipole moment :      0.05700156
  |   Hirshfeld second moments:      0.03164620      -0.00817711       0.01066209
  |                                 -0.00817711       0.02546308       0.01900948
  |                                  0.01066209       0.01900948       0.05009601
  ----------------------------------------------------------------------
  | Atom    11: O
  |   Hirshfeld charge        :     -0.33349025
  |   Free atom volume        :     23.95238533
  |   Hirshfeld volume        :     24.06827461
  |   Hirshfeld dipole vector :      0.06433011       0.03163717      -0.00508967
  |   Hirshfeld dipole moment :      0.07186918
  |   Hirshfeld second moments:     -0.03778131      -0.02267027       0.01669027
  |                                 -0.02267027      -0.00075166      -0.05292397
  |                                  0.01669027      -0.05292397      -0.06290904
  ----------------------------------------------------------------------
  | Atom    12: H
  |   Hirshfeld charge        :      0.07205596
  |   Free atom volume        :     10.44207651
  |   Hirshfeld volume        :      9.28418421
  |   Hirshfeld dipole vector :      0.06448073      -0.01285664       0.01090420
  |   Hirshfeld dipole moment :      0.06664803
  |   Hirshfeld second moments:      0.03011378       0.01361680      -0.01263148
  |                                  0.01361680       0.06201960      -0.00634695
  |                                 -0.01263148      -0.00634695       0.04106823
  ----------------------------------------------------------------------
  | Atom    13: H
  |   Hirshfeld charge        :      0.12090092
  |   Free atom volume        :     10.44207651
  |   Hirshfeld volume        :      7.90022154
  |   Hirshfeld dipole vector :      0.03647116       0.10129262      -0.04987484
  |   Hirshfeld dipole moment :      0.11865007
  |   Hirshfeld second moments:      0.09154173      -0.01418423       0.00739161
  |                                 -0.01418423       0.08450468      -0.01447580
  |                                  0.00739161      -0.01447580       0.07218391
  ----------------------------------------------------------------------


------------------------------------------------------------------------------
  Final output of selected total energy values:

  The following output summarizes some interesting total energy values
  at the end of a run (AFTER all relaxation, molecular dynamics, etc.).

  | Total energy of the DFT / Hartree-Fock s.c.f. calculation      :          -8345.977235228 eV
  | Final zero-broadening corrected energy (caution - metals only) :          -8345.980056176 eV
  | For reference only, the value of 1 Hartree used in FHI-aims is :             27.211384500 eV

  Before relying on these values, please be sure to understand exactly which
  total energy value is referred to by a given number. Different objects may
  all carry the same name 'total energy'. Definitions:

  Total energy of the DFT / Hartree-Fock s.c.f. calculation:
  | Note that this energy does not include ANY quantities calculated after the
  | s.c.f. cycle, in particular not ANY RPA, MP2, etc. many-body perturbation terms.

  Final zero-broadening corrected energy:
  | For metallic systems only, a broadening of the occupation numbers at the Fermi
  | level can be extrapolated back to zero broadening by an electron-gas inspired
  | formula. For all systems that are not real metals, this value can be
  | meaningless and should be avoided.

------------------------------------------------------------------------------

------------------------------------------------------------
          Leaving FHI-aims.
          Date     :  20150727, Time     :  125901.030

          Computational steps:
          | Number of self-consistency cycles          :           16

          Detailed time accounting                     :  max(cpu_time)    wall_clock(cpu1)
          | Total time                                 :       28.427 s          28.459 s
          | Preparation time                           :        0.169 s           0.575 s
          | Grid partitioning                          :        0.135 s           0.134 s
          | Preloading free-atom quantities on grid    :        0.013 s           0.014 s
          | Free-atom superposition energy             :        0.051 s           0.051 s
          | Total time for integrations                :       12.260 s          12.261 s
          | Total time for solution of K.-S. equations :        0.706 s           0.705 s
          | Total time for density & force components  :        9.514 s           9.514 s
          | Total time for mixing                      :        0.174 s           0.176 s
          | Total time for Hartree multipole update    :        0.067 s           0.067 s
          | Total time for Hartree multipole sum       :        4.670 s           4.670 s
          | Total time for total energy evaluation     :        0.000 s           0.006 s
          | Total time for scaled ZORA corrections     :        0.000 s           0.000 s
          | Total time for TS (2009) vdW correction    :        0.039 s           0.039 s

          Have a nice day.
------------------------------------------------------------
