  MPI-parallelism will be employed.
------------------------------------------------------------
          Invoking FHI-aims ...
          Version 081213
          Compiled on 2013/08/29 at 17:41:06 on host generoso.

          When using FHI-aims, please cite the following reference:

          Volker Blum, Ralf Gehrke, Felix Hanke, Paula Havu,
          Ville Havu, Xinguo Ren, Karsten Reuter, and Matthias Scheffler,
          'Ab Initio Molecular Simulations with Numeric Atom-Centered Orbitals: FHI-aims',
          Computer Physics Communications 180, 2175-2196 (2009)

          For any questions about FHI-aims, please visit the aimsclub website
          with its forums and wiki. Contributions to both the forums and the
          wiki are warmly encouraged - they are for you, and everyone is welcome there.

------------------------------------------------------------

  Date     :  20150727, Time     :  125247.402
  Time zero on CPU 1             :   0.449920000000000E-01  s.
  Internal wall clock time zero  :           207233567.402  s.

  Using        8 parallel tasks.
  Task        0 on host gen59 reporting.
  Task        1 on host gen59 reporting.
  Task        2 on host gen59 reporting.
  Task        3 on host gen59 reporting.
  Task        4 on host gen59 reporting.
  Task        5 on host gen59 reporting.
  Task        6 on host gen59 reporting.
  Task        7 on host gen59 reporting.

  Performing system and environment tests:
  | Environment variable OMP_NUM_THREADS correctly set to 1.
  | Checking for scalapack...
  | No scalapack compiled in.

  Obtaining array dimensions for all initial allocations:
  
  -----------------------------------------------------------------------
  Parsing control.in (first pass over file, find array dimensions only).
  The contents of control.in will be repeated verbatim below
  unless switched off by setting 'verbatim_writeout .false.' .
  in the first line of control.in .
  -----------------------------------------------------------------------
  
  #########################################################################################
  #
  #  Volker Blum, FHI 2008 : Test run input file control.in
  #
  #########################################################################################
  #
  #  Physical model
  #
    xc                 rpbe
    spin               none
    relativistic       atomic_zora scalar
    charge             0.
   vdw_correction_hirshfeld
  #
  #  SCF convergence
  #
    occupation_type    gaussian 0.01
    mixer              pulay
      n_max_pulay        10
      charge_mix_param   0.1
    sc_accuracy_rho    5E-5
    sc_accuracy_eev    5E-3
    sc_accuracy_etot   5E-6
    sc_iter_limit      3000
  #
  #  Eigenvalue solver
  #
    KS_method          lapack
      empty_states       8
      basis_threshold    0.e-5
  #
  #  Efficiency
  #
  #   all previous settings are now default, except stratmann still
  #   undecided. Continue to handle stratmann with care, if at all.
  #
  #  partition_type stratmann
    partition_type rho_r2
  #  hartree_partition_type stratmann
  #
  #  Oprions for large clusters (100's of atoms: memory saving / better scaling)
  #
  # for periodic systems:
  #
    density_update_method orbital
    packed_matrix_format none
  #  k_grid 6 6 6
  #  output k_eigenvalue 1
  #  distributed_spline_storage .true.
  #
  #  Relaxation
  #
  #  relax_geometry   bfgs 5.e-3
    sc_accuracy_forces 5.E-4
    final_forces_cleaned .true.
  #
  #  Output options
  #
  #  output mulliken
    output Hirshfeld
  #  output dipole
  
  #harmonic_length_scale 0.001
  
  ################################################################################
  #
  #  FHI-aims code project
  #  VB, Fritz-Haber Institut, 2007
  #
  #  Suggested "safe" defaults for H atom (to be pasted into control.in file)
  #  Basis constructed for a non-relativistic H2 molecule using the
  #  PW-LDA functional.
  #
  ################################################################################
    species        H
  #     global species definitions
      nucleus             1
      cut_pot             4.0  2.0  1.0
      cut_free_atom       finite 8.0
      logarithmic         0.00010000 100.00  1.0123
      basis_dep_cutoff    1d-4  # 1d-4 is safe default - please check 5d-4 if you wish!
      radial_base         24 7.0
      radial_multiplier   2
      angular_grids       specified
        division   0.2783  110
        division   0.3822  194
        division   0.5626  302
  #      division   0.5922  434
  #      division   0.6227  590
  #      division   0.7206  770
        outer_grid  302
      l_hartree           4
  ################################################################################
  #
  #  Definition of "minimal" basis
  #
  ################################################################################
  #     valence basis states
      valence      1  s   1.
  #     ion occupancy
      ion_occ      1  s   0.5
  ################################################################################
  #
  #  Suggested additional basis functions. For production calculations,
  #  uncomment them one after another (the most important basis functions are
  #  listed first).
  #
  ################################################################################
  #  "First tier" - improvements: -1014.90 meV to -62.69 meV
       hydro 2 s 2.1
       hydro 2 p 3.5
  #  "Second tier" - improvements: -12.89 meV to -1.83 meV
       hydro 1 s 0.85
       hydro 2 p 3.7
       hydro 2 s 1.2
       hydro 3 d 7
  #  "Third tier" - improvements: -0.25 meV to -0.12 meV
  #     hydro 4 f 11.2
  #     hydro 3 p 4.8
  #     hydro 4 d 9
  #     hydro 3 s 3.2
  
  ################################################################################
  #
  #  FHI-aims code project
  #  VB, Fritz-Haber Institut, 2007
  #
  #  Suggested "safe" defaults for O atom (to be pasted into control.in file)
  #  All values have been tested for a non-relativistic, non-spinpolarized O2
  #  molecule using the PW-LDA functional. Validity for PBE is expected.
  #
  #  Constructed for dimers: 1.0 A, 1.208 A, 1.5 A, 2.0 A, 3.0 A
  #
  ################################################################################
    species        O
  #     global species definitions
      nucleus             8
      mass                15.9994
      l_hartree           4
      cut_pot             4.0  2.0  1.0
      cut_free_atom       finite 8.0
      basis_dep_cutoff    1d-4  # 1d-4 is safe default - please check 5d-4 if you wish!
      logarithmic         0.00010000 100.00  1.0123
      radial_base         36 7.0
      radial_multiplier   2
       angular_grids specified
        division   0.4087  110
        division   0.5181  194
        division   0.6184  302
  #      division   0.7315  434
  #      division   0.7934  590
  #      division   0.9656  770
  #      division   1.4041  974
  #      outer_grid 974
        outer_grid 302
  ################################################################################
  #
  #  Definition of "minimal" basis
  #
  ################################################################################
  #     valence basis states
      valence      2  s   2.
      valence      2  p   4.
  #     ion occupancy
      ion_occ      2  s   1.
      ion_occ      2  p   3.
  ################################################################################
  #
  #  Suggested additional basis functions. For production calculations,
  #  uncomment them one after another (the most important basis functions are
  #  listed first).
  #
  ################################################################################
  #  "First tier" - improvements: -699.05 meV to -159.38 meV
       hydro 2 p 1.8
       hydro 3 d 7.6
       hydro 3 s 6.4
  #  "Second tier" - improvements: -49.91 meV to -5.39 meV
       hydro 4 f 11.6
       hydro 3 p 6.2
       hydro 3 d 5.6
       hydro 5 g 17.6
       hydro 1 s 0.75
  #  "Third tier" - improvements: -2.83 meV to -0.50 meV
  #     ionic 2 p auto
  #     hydro 4 f 10.8
  #     hydro 4 d 4.7
  #     hydro 2 s 6.8
  #  "Fourth tier" - improvements: -0.40 meV to -0.12 meV
  #     hydro 3 p 5
  #     hydro 3 s 3.3
  #     hydro 5 g 15.6
  #     hydro 4 f 17.6
  #     hydro 4 d 14
  # Further basis functions - -0.08 meV and below
  #     hydro 3 s 2.1
  #     hydro 4 d 11.6
  #     hydro 3 p 16
  #     hydro 2 s 17.2
  
  
  -----------------------------------------------------------------------
  Completed first pass over input file control.in .
  -----------------------------------------------------------------------
  
  
  -----------------------------------------------------------------------
  Parsing geometry.in (first pass over file, find array dimensions only).
  The contents of geometry.in will be repeated verbatim below
  unless switched off by setting 'verbatim_writeout .false.' .
  in the first line of geometry.in .
  -----------------------------------------------------------------------
  
  atom      -4.053030000      0.065001000     -1.525160000  O
  atom      -4.566710000      0.974813000     -1.912820000  H
  atom      -3.067820000      0.330172000     -1.477310000  H
  atom      -4.370360000     -0.049164000     -0.572274000  H
  atom      -5.293160000      2.192130000     -2.328800000  O
  atom      -4.829300000      2.988660000     -1.973850000  H
  atom      -5.428570000      2.328640000     -3.235170000  H
  
  -----------------------------------------------------------------------
  Completed first pass over input file geometry.in .
  -----------------------------------------------------------------------
  
 
  Basic array size parameters: 
  | Number of species                 :        2
  | Number of atoms                   :        7
  | Max. basis fn. angular momentum   :        4
  | Max. atomic/ionic basis occupied n:        2
  | Max. number of basis fn. types    :        2
  | Max. radial fns per species/type  :        8
  | Max. logarithmic grid size        :     1301
  | Max. radial integration grid size :       73
  | Max. angular integration grid size:      302
  | Max. angular grid division number :        8
  | Radial grid for Hartree potential :     1301
  | Number of spin channels           :        1

------------------------------------------------------------
          Reading file control.in.
------------------------------------------------------------
  XC: Using RPBE gradient-corrected functionals.
  Spin treatment: No spin polarisation.
  Scalar relativistic treatment of kinetic energy: on-site free-atom approximation to ZORA.
  Charge =   0.000000E+00: Neutral system requested explicitly.
  Using non-empirical van der Waals correction (Hirshfeld partitioning):
  Occupation type: Gaussian broadening, width =   0.100000E-01 eV.
  Using pulay charge density mixing.
  Pulay mixing - number of memorized iterations:   10
  Charge density mixing - mixing parameter:     0.1000
  Convergence accuracy of self-consistent charge density: 0.5000E-04
  Convergence accuracy of sum of eigenvalues: 0.5000E-02
  Convergence accuracy of total energy: 0.5000E-05
  Maximum number of s.-c. iterations  :  3000
  Kohn-Sham eigenvalues and eigenfunctions calculated by lapack diagonalisation (D&C).
  Number of empty states per atom:        8
  Threshold for basis singularities: 0.0000E+00
  Partition function in integrals calculations: rho / r^2
 Using packed matrix format           0
  Convergence accuracy of forces: 0.5000E-03
  Cleaning forces before final output.
  Hirshfeld charge analysis will be performed.
 
  Reading configuration options for species H                   .
  | Found nuclear charge :   1.0000
  | Found cutoff potl. onset [A], width [A], scale factor :    4.00000    2.00000    1.00000
  | Found cutoff specification for free atom: Cutoff potential begins at    8.00000 A.
  | Found logarithmic grid data [bohr] : 0.1000E-03 0.1000E+03 0.1012E+01
  | Threshold for basis-dependent cutoff potential is   0.100000E-03
  | Found data for basic radial integration grid :    24 points, outermost radius =    7.000 A
  | Found multiplier for basic radial grid :   2
  | Found angular grid specification: user-specified.
  | Specified grid contains     4 separate shells.
  | Check grid settings after all constraints further below.
  | Found l_max for Hartree potential  :   4
  | Found free-atom valence shell :  1 s   1.000
  | No ionic wave fns used. Skipping ion_occ.
  | Found hydrogenic basis function :  2 s   2.100
  | Found hydrogenic basis function :  2 p   3.500
  | Found hydrogenic basis function :  1 s   0.850
  | Found hydrogenic basis function :  2 p   3.700
  | Found hydrogenic basis function :  2 s   1.200
  | Found hydrogenic basis function :  3 d   7.000
  Species H                   : Missing cutoff potential type.
  Defaulting to exp(1/x)/(1-x)^2 type cutoff potential.
  Species H : On-site basis accuracy parameter (for Gram-Schmidt orthonormalisation) not specified.
  Using default value basis_acc =  0.1000000E-03.
  Species H                   : Using default innermost maximum threshold i_radial=  2 for radial functions.
  Species H                   : Basic radial grid will be enhanced according to radial_multiplier =   2, to contain    49 grid points.
 
  Reading configuration options for species O                   .
  | Found nuclear charge :   8.0000
  | Found atomic mass :    15.9994000000000      amu
  | Found l_max for Hartree potential  :   4
  | Found cutoff potl. onset [A], width [A], scale factor :    4.00000    2.00000    1.00000
  | Found cutoff specification for free atom: Cutoff potential begins at    8.00000 A.
  | Threshold for basis-dependent cutoff potential is   0.100000E-03
  | Found logarithmic grid data [bohr] : 0.1000E-03 0.1000E+03 0.1012E+01
  | Found data for basic radial integration grid :    36 points, outermost radius =    7.000 A
  | Found multiplier for basic radial grid :   2
  | Found angular grid specification: user-specified.
  | Specified grid contains     4 separate shells.
  | Check grid settings after all constraints further below.
  | Found free-atom valence shell :  2 s   2.000
  | Found free-atom valence shell :  2 p   4.000
  | No ionic wave fns used. Skipping ion_occ.
  | No ionic wave fns used. Skipping ion_occ.
  | Found hydrogenic basis function :  2 p   1.800
  | Found hydrogenic basis function :  3 d   7.600
  | Found hydrogenic basis function :  3 s   6.400
  | Found hydrogenic basis function :  4 f  11.600
  | Found hydrogenic basis function :  3 p   6.200
  | Found hydrogenic basis function :  3 d   5.600
  | Found hydrogenic basis function :  5 g  17.600
  | Found hydrogenic basis function :  1 s   0.750
  Species O                   : Missing cutoff potential type.
  Defaulting to exp(1/x)/(1-x)^2 type cutoff potential.
  Species O : On-site basis accuracy parameter (for Gram-Schmidt orthonormalisation) not specified.
  Using default value basis_acc =  0.1000000E-03.
  Species O                   : Using default innermost maximum threshold i_radial=  2 for radial functions.
  Species O                   : Basic radial grid will be enhanced according to radial_multiplier =   2, to contain    73 grid points.
 
  Finished reading input file 'control.in'. Consistency checks are next.
 
  Target number of points in a grid batch is not set. Defaulting to  100
  Method for grid partitioning is not set. Defaulting to parallel hash+maxmin partitioning.
  Batch size limit is not set. Defaulting to    200
  By default, will store active basis functions for each batch.
  If in need of memory, prune_basis_once .false. can be used to disable this option.
  communication_type for Hartree potential was not specified.
  Defaulting to calc_hartree .
  Pulay mixer: Number of initial linear mixing iterations not set.
  Defaulting to    0 iterations.
  Work space size for distributed Hartree potential not set.
  Defaulting to   0.200000E+03 MB.
  Algorithm-dependent basis array size parameters:
  | n_max_pulay                         :       10
  Geometry relaxation not requested: no relaxation will be performed.
  Handling of forces: Unphysical translation and rotation will be removed from forces.
  No accuracy limit for integral partition fn. given. Defaulting to 0.1000E-14.
  No threshold value for u(r) in integrations given. Defaulting to 0.1000E-05.
  No accuracy for occupation numbers given. Defaulting to 0.1000E-07.
  No threshold value for occupation numbers given. Defaulting to 0.0000E+00.
  No accuracy for fermi level given. Defaulting to 0.1000E-19.
  Maximum # of iterations to find E_F not set. Defaulting to  200.
  Will not use alltoall communication since running on < 1024 CPUs.
  Partitioning for Hartree potential was not defined. Using partition_type for integrals.
  | Reporting present value of keyword multip_moments_threshold  :       0.10000000E-09
  | This value may affect high angular momentum components of the Hartree potential in periodic systems.
  No q(lm)/r^(l+1) cutoff set for long-range Hartree potential.
  | Using default value of  0.100000E-09 .
  | Verify using the multipole_threshold keyword.
  Defaulting to new monopole extrapolation.
  Density update method: Loop over occupied states selected for charge density update.
------------------------------------------------------------


------------------------------------------------------------
          Reading geometry description geometry.in.
------------------------------------------------------------
  Input structure read successfully.
  The structure contains        7 atoms,  and a total of         21.000 electrons.

  Input geometry:
  | No unit cell requested.
  | Atomic structure:
  |       Atom                x [A]            y [A]            z [A]
  |    1: Species O             -4.053030         0.065001        -1.525160
  |    2: Species H             -4.566710         0.974813        -1.912820
  |    3: Species H             -3.067820         0.330172        -1.477310
  |    4: Species H             -4.370360        -0.049164        -0.572274
  |    5: Species O             -5.293160         2.192130        -2.328800
  |    6: Species H             -4.829300         2.988660        -1.973850
  |    7: Species H             -5.428570         2.328640        -3.235170
  |

  | The smallest distance between any two atoms is         0.92654057 AA.
  |
  | The first atom of this pair is atom number                      5 .
  | The second atom of this pair is atom number                     7 .

  Structure-dependent array size parameters: 
  | Maximum number of distinct radial functions  :       18
  | Maximum number of basis functions            :      153
  | Number of Kohn-Sham states (occupied + empty):       39
------------------------------------------------------------

------------------------------------------------------------
          Preparing all fixed parts of the calculation.
------------------------------------------------------------
  Determining machine precision:
    2.225073858507201E-308
  Setting up grids for atomic and cluster calculations.

  Creating wave function, potential, and density for free atoms.

  Species: H

  List of occupied orbitals and eigenvalues:
    n    l              occ      energy [Ha]    energy [eV]
    1    0           1.0000        -0.241408        -6.5691


  Species: O

  List of occupied orbitals and eigenvalues:
    n    l              occ      energy [Ha]    energy [eV]
    1    0           2.0000       -18.944147      -515.4965
    2    0           2.0000        -0.883529       -24.0421
    2    1           4.0000        -0.330176        -8.9845

  Creating fixed part of basis set: Ionic, confined, hydrogenic.
 
  H                    hydrogenic:
 
  List of hydrogenic basis orbitals: 
    n    l      effective z      eigenvalue [eV]  inner max. [A]     outer max. [A]     outer radius [A]   
    2    0         2.100000       -14.9965           0.193241           1.317192           5.372934
    2    1         3.500000       -41.6672           0.602363           0.602363           4.056010
    1    0         0.850000        -9.8292           0.624864           0.624864           5.372934
    2    1         3.700000       -46.5653           0.573616           0.573616           3.909951
    2    0         1.200000        -4.5995           0.334977           2.228160           5.505921
    3    2         7.000000       -74.0753           0.680692           0.680692           3.769152
 
 
  O                    hydrogenic:
 
  List of hydrogenic basis orbitals: 
    n    l      effective z      eigenvalue [eV]  inner max. [A]     outer max. [A]     outer radius [A]   
    2    1         1.800000       -11.0118           1.178546           1.178546           5.432516
    3    2         7.600000       -87.3182           0.624117           0.624117           3.541422
    3    0         6.400000       -61.9209           0.061166           1.081887           4.306510
    4    3        11.600000      -114.4238           0.731621           0.731621           3.584982
    3    1         6.200000       -58.1113           0.255677           1.030255           4.306510
    3    2         5.600000       -47.4081           0.847222           0.847222           4.413102
    5    4        17.600000      -168.5799           0.749730           0.749730           3.372413
    1    0         0.750000        -7.6499           0.705275           0.705275           5.366508
 

  Adding cutoff potential to free-atom effective potential.
  Creating atomic-like basis functions for current effective potential.

  Species H                   :

  List of atomic basis orbitals and eigenvalues:
    n    l      energy [Ha]    energy [eV]    outer radius [A]
    1    0        -0.241374        -6.5681       5.372934


  Species O                   :

  List of atomic basis orbitals and eigenvalues:
    n    l      energy [Ha]    energy [eV]    outer radius [A]
    1    0       -18.944147      -515.4965       1.415745
    2    0        -0.883529       -24.0421       5.048305
    2    1        -0.330173        -8.9845       5.301302

  Assembling full basis from fixed parts.
  | Species H :   atomic orbital   1 s accepted.
  | Species H :    hydro orbital   2 s accepted.
  | Species H :    hydro orbital   1 s accepted.
  | Species H :    hydro orbital   2 s accepted.
  | Species H :    hydro orbital   2 p accepted.
  | Species H :    hydro orbital   2 p accepted.
  | Species H :    hydro orbital   3 d accepted.
  | Species O :   atomic orbital   1 s accepted.
  | Species O :    hydro orbital   3 s accepted.
  | Species O :   atomic orbital   2 s accepted.
  | Species O :    hydro orbital   1 s accepted.
  | Species O :    hydro orbital   3 p accepted.
  | Species O :   atomic orbital   2 p accepted.
  | Species O :    hydro orbital   2 p accepted.
  | Species O :    hydro orbital   3 d accepted.
  | Species O :    hydro orbital   3 d accepted.
  | Species O :    hydro orbital   4 f accepted.
  | Species O :    hydro orbital   5 g accepted.
 
  Basis size parameters after reduction:
  | Total number of radial functions:       18
  | Total number of basis functions :      153
 
  Testing on-site integration grid accuracy.
  |  Species  Function  <phi|h_atom|phi> (log., in eV)  <phi|h_atom|phi> (rad., in eV)
           1        1                 -6.5683835025                 -6.5684759159
           1        2                 13.3711789951                 13.3708738703
           1        3                 23.6590910787                 23.6532055418
           1        4                 16.2963827186                 16.1870710655 ***
           1        5                 28.7627214838                 28.7627215090
           1        6                 59.5965249172                 59.5965950857
           1        7                 60.2220506392                 60.2220503827
           2        8               -515.4964576505               -515.4964530710
           2        9                 15.3030791347                 15.3030722972
           2       10                -21.7296094581                -21.7296135470
           2       11                 14.2969371730                 14.2969701621
           2       12                 21.0679693190                 21.0679697493
           2       13                 -2.3833606469                 -2.3833613176
           2       14                 13.7067136422                 13.7066766629
           2       15                 45.8013116808                 45.8013116965
           2       16                 52.2309815402                 52.2309831494
           2       17                 85.4120732416                 85.4120732763
           2       18                142.1019167745                142.1019167817
 * Note: Onsite integrals marked "***" above are less accurate than
 * onsite_accuracy_threshold =    0.03000 eV. Usually, this is harmless.
 * When in doubt, tighten the "radial" and/or "radial_multiplier" flags to check.

  Preparing densities etc. for the partition functions (integrals / Hartree potential).

  Preparations completed.
  max(cpu_time)          :      0.174 s.
  Wall clock time (cpu1) :      0.694 s.
------------------------------------------------------------

------------------------------------------------------------
          Begin self-consistency loop: Initialization.

          Date     :  20150727, Time     :  125248.106
------------------------------------------------------------

  Initializing index lists of integration centers etc. from given atomic structure:
  | Number of centers in hartree potential         :         7
  | Number of centers in hartree multipole         :         7
  | Number of centers in electron density summation:         7
  | Number of centers in basis integrals           :         7
  | Number of centers in integrals                 :         7
  Partitioning the integration grid into batches with parallel hashing+maxmin method.
  | Number of batches:     1180
  | Maximal batch size:     186
  | Minimal batch size:      52
  | Average batch size:      76.507
  | Standard deviation of batch sizes:      21.944

  Integration load balanced across     8 MPI tasks.
  Work distribution over tasks is as follows:
  Task     0 has      11312 integration points.
  Task     1 has      11249 integration points.
  Task     2 has      11244 integration points.
  Task     3 has      11252 integration points.
  Task     4 has      11315 integration points.
  Task     5 has      11356 integration points.
  Task     6 has      11317 integration points.
  Task     7 has      11233 integration points.
  Initializing partition tables, free-atom densities, potentials, etc. across the integration grid (initialize_grid_storage).
  | Net number of integration points:    90278
  | of which are non-zero points    :    89842
  Obtaining max. number of non-zero basis functions in each batch (get_n_compute_maxes).
  | Maximal number of non-zero basis functions:      153 in task     0
  | Maximal number of non-zero basis functions:      153 in task     1
  | Maximal number of non-zero basis functions:      153 in task     2
  | Maximal number of non-zero basis functions:      153 in task     3
  | Maximal number of non-zero basis functions:      153 in task     4
  | Maximal number of non-zero basis functions:      153 in task     5
  | Maximal number of non-zero basis functions:      153 in task     6
  | Maximal number of non-zero basis functions:      153 in task     7
  Integrating Hamiltonian matrix: batch-based integration.
  Time summed over all CPUs for integration: real work        1.500 s, elapsed        1.551 s
  Integrating overlap matrix.
  Time summed over all CPUs for integration: real work        0.748 s, elapsed        0.773 s

  Updating Kohn-Sham eigenvalues, eigenvectors, occupation numbers, and Fermi level.
  Solving generalized eigenproblem
  Updating Kohn-Sham eigenvalues and eigenfunctions.
  Transforming overlap matrix and checking for singularities.
  Overlap matrix is nonsingular:
  | Lowest eigenvalue:  0.348413E-03
  Solving real generalised eigenvalue problem by standard LAPACK (fast)
  Determining occupation numbers for Kohn-Sham eigenstates.
  | Chemical potential (Fermi level) in eV                 : -.25606624E+01
  | Error in electron count due to remaining E_F inaccuracy: 0.57004712E-08
  | Maximum occupation number of highest empty state:  0.00E+00

  Writing Kohn-Sham eigenvalues.

  State    Occupation    Eigenvalue [Ha]    Eigenvalue [eV]
      1       2.00000         -19.064880         -518.78177
      2       2.00000         -19.064847         -518.78088
      3       2.00000          -1.127466          -30.67990
      4       2.00000          -1.112485          -30.27227
      5       2.00000          -0.650714          -17.70683
      6       2.00000          -0.627436          -17.07340
      7       2.00000          -0.619832          -16.86648
      8       2.00000          -0.524802          -14.28059
      9       2.00000          -0.487173          -13.25665
     10       2.00000          -0.452486          -12.31277
     11       1.00000          -0.094103           -2.56066
     12       0.00000          -0.055167           -1.50117
     13       0.00000          -0.019170           -0.52164
     14       0.00000          -0.005771           -0.15703
     15       0.00000           0.048363            1.31603
     16       0.00000           0.076270            2.07542
     17       0.00000           0.080833            2.19958
     18       0.00000           0.087250            2.37420
     19       0.00000           0.106043            2.88559
     20       0.00000           0.116214            3.16233
     21       0.00000           0.143143            3.89512
     22       0.00000           0.154809            4.21258
     23       0.00000           0.201040            5.47059
     24       0.00000           0.216940            5.90324
     25       0.00000           0.244824            6.66200
     26       0.00000           0.279863            7.61545
     27       0.00000           0.319017            8.68089
     28       0.00000           0.356278            9.69481
     29       0.00000           0.362188            9.85563
     30       0.00000           0.377295           10.26673
     31       0.00000           0.396199           10.78113
     32       0.00000           0.410596           11.17289
     33       0.00000           0.474812           12.92028
     34       0.00000           0.508613           13.84007
     35       0.00000           0.539904           14.69154
     36       0.00000           0.616217           16.76813
     37       0.00000           0.622233           16.93181
     38       0.00000           0.731868           19.91515
     39       0.00000           0.740299           20.14457

  Highest occupied state (VBM) at     -2.56066243 eV
  | Occupation number:      1.00000001

  Lowest unoccupied state (CBM) at    -1.50116554 eV
  | Occupation number:      0.00000000

  Overall HOMO-LUMO gap:      1.05949689 eV.
  Calculating total energy contributions from superposition of free atom densities.

  Total energy components:
  | Sum of eigenvalues            :         -87.55834324 Ha       -2382.58374404 eV
  | XC energy correction          :         -18.59294134 Ha        -505.93967586 eV
  | XC potential correction       :          23.76757834 Ha         646.74871288 eV
  | Free-atom electrostatic energy:         -71.28893346 Ha       -1939.87057891 eV
  | Hartree energy correction     :           0.00000000 Ha           0.00000000 eV
  | van der Waals energy corr.    :           0.00000000 Ha           0.00000000 eV
  | Entropy correction            :          -0.00010367 Ha          -0.00282095 eV
  | ---------------------------
  | Total energy                  :        -153.67263970 Ha       -4181.64528592 eV
  | Total energy, T -> 0          :        -153.67274336 Ha       -4181.64810687 eV  <-- do not rely on this value for anything but (periodic) metals
  | Electronic free energy        :        -153.67284703 Ha       -4181.65092782 eV

  Derived energy quantities:
  | Kinetic energy                :         152.37072316 Ha        4146.21833445 eV
  | Electrostatic energy          :        -287.45042151 Ha       -7821.92394452 eV
  | Energy correction for multipole
  | error in Hartree potential    :           0.00000000 Ha           0.00000000 eV
  | Sum of eigenvalues per atom                           :        -340.36910629 eV
  | Total energy (T->0) per atom                          :        -597.37830098 eV  <-- do not rely on this value for anything but (periodic) metals
  | Electronic free energy per atom                       :        -597.37870397 eV
  Initialize hartree_potential_storage
  Max. number of atoms included in rho_multipole:            7

  End scf initialization - timings             :  max(cpu_time)    wall_clock(cpu1)
  | Time for scf. initialization               :        0.455 s           0.455 s
  | Boundary condition initialization          :        0.000 s           0.000 s
  | Integration                                :        0.291 s           0.291 s
  | Solution of K.-S. eqns.                    :        0.035 s           0.035 s
  | Grid partitioning                          :        0.064 s           0.064 s
  | Preloading free-atom quantities on grid    :        0.013 s           0.013 s
  | Free-atom superposition energy             :        0.020 s           0.020 s
  | Total energy evaluation                    :        0.000 s           0.000 s
------------------------------------------------------------

------------------------------------------------------------
          Begin self-consistency iteration #    1

  Date     :  20150727, Time     :  125248.561
------------------------------------------------------------
  Evaluating new KS density.
  Integration grid: deviation in total charge (<rho> - N_e) =   5.700461E-09
  Pulay mixing of updated and previous charge densities.

  Evaluating partitioned Hartree potential by multipole expansion.
  | Analytical far-field extrapolation by fixed multipoles:
  | Hartree multipole sum: apparent total charge =  -0.161780E-06
  Summing up the Hartree potential.
  Time summed over all CPUs for potential: real work        0.572 s, elapsed        0.576 s
  | RMS charge density error from multipole expansion :   0.109918E-02

  Integrating Hamiltonian matrix: batch-based integration.
  Time summed over all CPUs for integration: real work        1.494 s, elapsed        1.534 s

  Updating Kohn-Sham eigenvalues, eigenvectors, occupation numbers, and Fermi level.
  Solving generalized eigenproblem
  Updating Kohn-Sham eigenvalues and eigenfunctions.
  Solving real generalised eigenvalue problem by standard LAPACK (fast)
  Determining occupation numbers for Kohn-Sham eigenstates.
  | Chemical potential (Fermi level) in eV                 : -.24149135E+01
  | Error in electron count due to remaining E_F inaccuracy: 0.00000000E+00
  | Maximum occupation number of highest empty state:  0.00E+00

  Writing Kohn-Sham eigenvalues.

  State    Occupation    Eigenvalue [Ha]    Eigenvalue [eV]
      1       2.00000         -19.010593         -517.30456
      2       2.00000         -18.994717         -516.87254
      3       2.00000          -1.099391          -29.91594
      4       2.00000          -1.082221          -29.44872
      5       2.00000          -0.622305          -16.93379
      6       2.00000          -0.606121          -16.49339
      7       2.00000          -0.596836          -16.24074
      8       2.00000          -0.494505          -13.45615
      9       2.00000          -0.459154          -12.49421
     10       2.00000          -0.418718          -11.39389
     11       1.00000          -0.088746           -2.41491
     12       0.00000          -0.049929           -1.35865
     13       0.00000          -0.014749           -0.40135
     14       0.00000          -0.001394           -0.03794
     15       0.00000           0.053303            1.45046
     16       0.00000           0.081476            2.21707
     17       0.00000           0.085542            2.32771
     18       0.00000           0.096309            2.62071
     19       0.00000           0.110370            3.00332
     20       0.00000           0.121813            3.31471
     21       0.00000           0.147675            4.01845
     22       0.00000           0.160801            4.37561
     23       0.00000           0.205629            5.59546
     24       0.00000           0.221406            6.02476
     25       0.00000           0.248763            6.76920
     26       0.00000           0.283853            7.72403
     27       0.00000           0.324046            8.81775
     28       0.00000           0.360063            9.79782
     29       0.00000           0.368286           10.02158
     30       0.00000           0.383856           10.44526
     31       0.00000           0.400264           10.89174
     32       0.00000           0.415627           11.30979
     33       0.00000           0.479815           13.05643
     34       0.00000           0.515635           14.03114
     35       0.00000           0.546820           14.87972
     36       0.00000           0.624600           16.99623
     37       0.00000           0.628687           17.10745
     38       0.00000           0.739405           20.12023
     39       0.00000           0.746206           20.30530

  Highest occupied state (VBM) at     -2.41491352 eV
  | Occupation number:      1.00000000

  Lowest unoccupied state (CBM) at    -2.41491352 eV
  | Occupation number:      1.00000000

  Overall HOMO-LUMO gap:      0.00000000 eV.

  Total energy components:
  | Sum of eigenvalues            :         -86.85786607 Ha       -2363.52279054 eV
  | XC energy correction          :         -18.67045931 Ha        -508.04904711 eV
  | XC potential correction       :          23.86861031 Ha         649.49793259 eV
  | Free-atom electrostatic energy:         -71.28893346 Ha       -1939.87057891 eV
  | Hartree energy correction     :          -0.68571853 Ha         -18.65935067 eV
  | van der Waals energy corr.    :           0.00000000 Ha           0.00000000 eV
  | Entropy correction            :          -0.00010367 Ha          -0.00282095 eV
  | ---------------------------
  | Total energy                  :        -153.63436707 Ha       -4180.60383464 eV
  | Total energy, T -> 0          :        -153.63447073 Ha       -4180.60665559 eV  <-- do not rely on this value for anything but (periodic) metals
  | Electronic free energy        :        -153.63457440 Ha       -4180.60947653 eV

  Derived energy quantities:
  | Kinetic energy                :         152.86621846 Ha        4159.70144751 eV
  | Electrostatic energy          :        -287.83012621 Ha       -7832.25623504 eV
  | Energy correction for multipole
  | error in Hartree potential    :           0.00039573 Ha           0.01076849 eV
  | Sum of eigenvalues per atom                           :        -337.64611293 eV
  | Total energy (T->0) per atom                          :        -597.22952223 eV  <-- do not rely on this value for anything but (periodic) metals
  | Electronic free energy per atom                       :        -597.22992522 eV

  Self-consistency convergence accuracy:
  | Change of charge density      : 0.3791E+00
  | Change of sum of eigenvalues  : 0.1906E+02 eV
  | Change of total energy        : 0.1041E+01 eV

  End self-consistency iteration #     1       :  max(cpu_time)    wall_clock(cpu1)
  | Time for this iteration                    :        0.412 s           0.413 s
  | Charge density update                      :        0.134 s           0.134 s
  | Density mixing                             :        0.001 s           0.001 s
  | Hartree multipole update                   :        0.003 s           0.003 s
  | Hartree multipole summation                :        0.072 s           0.072 s
  | Integration                                :        0.193 s           0.192 s
  | Solution of K.-S. eqns.                    :        0.008 s           0.008 s
  | Total energy evaluation                    :        0.001 s           0.001 s
------------------------------------------------------------

------------------------------------------------------------
          Begin self-consistency iteration #    2

  Date     :  20150727, Time     :  125248.974
------------------------------------------------------------
  Evaluating new KS density.
  Integration grid: deviation in total charge (<rho> - N_e) =  -3.552714E-15
  Pulay mixing of updated and previous charge densities.

  Evaluating partitioned Hartree potential by multipole expansion.
  | Analytical far-field extrapolation by fixed multipoles:
  | Hartree multipole sum: apparent total charge =  -0.160496E-05
  Summing up the Hartree potential.
  Time summed over all CPUs for potential: real work        0.571 s, elapsed        0.574 s
  | RMS charge density error from multipole expansion :   0.452439E-02

  Integrating Hamiltonian matrix: batch-based integration.
  Time summed over all CPUs for integration: real work        1.497 s, elapsed        1.540 s

  Updating Kohn-Sham eigenvalues, eigenvectors, occupation numbers, and Fermi level.
  Solving generalized eigenproblem
  Updating Kohn-Sham eigenvalues and eigenfunctions.
  Solving real generalised eigenvalue problem by standard LAPACK (fast)
  Determining occupation numbers for Kohn-Sham eigenstates.
  | Chemical potential (Fermi level) in eV                 : -.20679323E+01
  | Error in electron count due to remaining E_F inaccuracy: -.56239458E-11
  | Maximum occupation number of highest empty state:  0.00E+00

  Highest occupied state (VBM) at     -9.15889637 eV
  | Occupation number:      2.00000000

  Lowest unoccupied state (CBM) at    -2.06793228 eV
  | Occupation number:      1.00000000

  Overall HOMO-LUMO gap:      7.09096409 eV.

  Total energy components:
  | Sum of eigenvalues            :         -85.16982400 Ha       -2317.58882863 eV
  | XC energy correction          :         -18.86826005 Ha        -513.43147914 eV
  | XC potential correction       :          24.12543684 Ha         656.48653813 eV
  | Free-atom electrostatic energy:         -71.28893346 Ha       -1939.87057891 eV
  | Hartree energy correction     :          -2.39076757 Ha         -65.05609566 eV
  | van der Waals energy corr.    :           0.00000000 Ha           0.00000000 eV
  | Entropy correction            :          -0.00010367 Ha          -0.00282095 eV
  | ---------------------------
  | Total energy                  :        -153.59234824 Ha       -4179.46044421 eV
  | Total energy, T -> 0          :        -153.59245191 Ha       -4179.46326516 eV  <-- do not rely on this value for anything but (periodic) metals
  | Electronic free energy        :        -153.59255558 Ha       -4179.46608611 eV

  Derived energy quantities:
  | Kinetic energy                :         153.93232309 Ha        4188.71163061 eV
  | Electrostatic energy          :        -288.65641128 Ha       -7854.74059567 eV
  | Energy correction for multipole
  | error in Hartree potential    :           0.00123076 Ha           0.03349079 eV
  | Sum of eigenvalues per atom                           :        -331.08411838 eV
  | Total energy (T->0) per atom                          :        -597.06618074 eV  <-- do not rely on this value for anything but (periodic) metals
  | Electronic free energy per atom                       :        -597.06658373 eV

  Self-consistency convergence accuracy:
  | Change of charge density      : 0.2900E+00
  | Change of sum of eigenvalues  : 0.4593E+02 eV
  | Change of total energy        : 0.1143E+01 eV

  End self-consistency iteration #     2       :  max(cpu_time)    wall_clock(cpu1)
  | Time for this iteration                    :        0.412 s           0.412 s
  | Charge density update                      :        0.133 s           0.132 s
  | Density mixing                             :        0.002 s           0.003 s
  | Hartree multipole update                   :        0.003 s           0.002 s
  | Hartree multipole summation                :        0.072 s           0.073 s
  | Integration                                :        0.193 s           0.193 s
  | Solution of K.-S. eqns.                    :        0.008 s           0.008 s
  | Total energy evaluation                    :        0.000 s           0.000 s
------------------------------------------------------------

------------------------------------------------------------
          Begin self-consistency iteration #    3

  Date     :  20150727, Time     :  125249.386
------------------------------------------------------------
  Evaluating new KS density.
  Integration grid: deviation in total charge (<rho> - N_e) =  -5.620393E-12
  Pulay mixing of updated and previous charge densities.

  Evaluating partitioned Hartree potential by multipole expansion.
  | Analytical far-field extrapolation by fixed multipoles:
  | Hartree multipole sum: apparent total charge =  -0.191729E-05
  Summing up the Hartree potential.
  Time summed over all CPUs for potential: real work        0.571 s, elapsed        0.575 s
  | RMS charge density error from multipole expansion :   0.955599E-02

  Integrating Hamiltonian matrix: batch-based integration.
  Time summed over all CPUs for integration: real work        1.496 s, elapsed        1.534 s

  Updating Kohn-Sham eigenvalues, eigenvectors, occupation numbers, and Fermi level.
  Solving generalized eigenproblem
  Updating Kohn-Sham eigenvalues and eigenfunctions.
  Solving real generalised eigenvalue problem by standard LAPACK (fast)
  Determining occupation numbers for Kohn-Sham eigenstates.
  | Chemical potential (Fermi level) in eV                 : -.21227033E+01
  | Error in electron count due to remaining E_F inaccuracy: -.61734156E-08
  | Maximum occupation number of highest empty state:  0.00E+00

  Highest occupied state (VBM) at     -9.23818528 eV
  | Occupation number:      2.00000000

  Lowest unoccupied state (CBM) at    -2.12270327 eV
  | Occupation number:      0.99999999

  Overall HOMO-LUMO gap:      7.11548201 eV.

  Total energy components:
  | Sum of eigenvalues            :         -85.38926566 Ha       -2323.56013992 eV
  | XC energy correction          :         -18.86247155 Ha        -513.27396602 eV
  | XC potential correction       :          24.11282837 Ha         656.14344404 eV
  | Free-atom electrostatic energy:         -71.28893346 Ha       -1939.87057891 eV
  | Hartree energy correction     :          -2.16482781 Ha         -58.90796192 eV
  | van der Waals energy corr.    :           0.00000000 Ha           0.00000000 eV
  | Entropy correction            :          -0.00010367 Ha          -0.00282095 eV
  | ---------------------------
  | Total energy                  :        -153.59267011 Ha       -4179.46920271 eV
  | Total energy, T -> 0          :        -153.59277378 Ha       -4179.47202366 eV  <-- do not rely on this value for anything but (periodic) metals
  | Electronic free energy        :        -153.59287744 Ha       -4179.47484461 eV

  Derived energy quantities:
  | Kinetic energy                :         153.28691871 Ha        4171.14928379 eV
  | Electrostatic energy          :        -288.01711727 Ha       -7837.34452049 eV
  | Energy correction for multipole
  | error in Hartree potential    :           0.00044313 Ha           0.01205819 eV
  | Sum of eigenvalues per atom                           :        -331.93716285 eV
  | Total energy (T->0) per atom                          :        -597.06743195 eV  <-- do not rely on this value for anything but (periodic) metals
  | Electronic free energy per atom                       :        -597.06783494 eV

  Self-consistency convergence accuracy:
  | Change of charge density      : 0.1405E+00
  | Change of sum of eigenvalues  : -.5971E+01 eV
  | Change of total energy        : -.8759E-02 eV

  End self-consistency iteration #     3       :  max(cpu_time)    wall_clock(cpu1)
  | Time for this iteration                    :        0.411 s           0.411 s
  | Charge density update                      :        0.132 s           0.132 s
  | Density mixing                             :        0.003 s           0.003 s
  | Hartree multipole update                   :        0.002 s           0.003 s
  | Hartree multipole summation                :        0.072 s           0.072 s
  | Integration                                :        0.193 s           0.192 s
  | Solution of K.-S. eqns.                    :        0.008 s           0.009 s
  | Total energy evaluation                    :        0.000 s           0.000 s
------------------------------------------------------------

------------------------------------------------------------
          Begin self-consistency iteration #    4

  Date     :  20150727, Time     :  125249.797
------------------------------------------------------------
  Evaluating new KS density.
  Integration grid: deviation in total charge (<rho> - N_e) =  -6.173405E-09
  Pulay mixing of updated and previous charge densities.

  Evaluating partitioned Hartree potential by multipole expansion.
  | Analytical far-field extrapolation by fixed multipoles:
  | Hartree multipole sum: apparent total charge =  -0.220428E-05
  Summing up the Hartree potential.
  Time summed over all CPUs for potential: real work        0.571 s, elapsed        0.575 s
  | RMS charge density error from multipole expansion :   0.117008E-01

  Integrating Hamiltonian matrix: batch-based integration.
  Time summed over all CPUs for integration: real work        1.493 s, elapsed        1.533 s

  Updating Kohn-Sham eigenvalues, eigenvectors, occupation numbers, and Fermi level.
  Solving generalized eigenproblem
  Updating Kohn-Sham eigenvalues and eigenfunctions.
  Solving real generalised eigenvalue problem by standard LAPACK (fast)
  Determining occupation numbers for Kohn-Sham eigenstates.
  | Chemical potential (Fermi level) in eV                 : -.20868609E+01
  | Error in electron count due to remaining E_F inaccuracy: -.67625905E-10
  | Maximum occupation number of highest empty state:  0.00E+00

  Highest occupied state (VBM) at     -8.82414351 eV
  | Occupation number:      2.00000000

  Lowest unoccupied state (CBM) at    -2.08686089 eV
  | Occupation number:      1.00000000

  Overall HOMO-LUMO gap:      6.73728261 eV.

  Total energy components:
  | Sum of eigenvalues            :         -85.11625188 Ha       -2316.13105705 eV
  | XC energy correction          :         -18.90591690 Ha        -514.45617415 eV
  | XC potential correction       :          24.16798787 Ha         657.64441049 eV
  | Free-atom electrostatic energy:         -71.28893346 Ha       -1939.87057891 eV
  | Hartree energy correction     :          -2.44882852 Ha         -66.63601435 eV
  | van der Waals energy corr.    :           0.00000000 Ha           0.00000000 eV
  | Entropy correction            :          -0.00010367 Ha          -0.00282095 eV
  | ---------------------------
  | Total energy                  :        -153.59194289 Ha       -4179.44941396 eV
  | Total energy, T -> 0          :        -153.59204655 Ha       -4179.45223491 eV  <-- do not rely on this value for anything but (periodic) metals
  | Electronic free energy        :        -153.59215022 Ha       -4179.45505585 eV

  Derived energy quantities:
  | Kinetic energy                :         153.31166942 Ha        4171.82278485 eV
  | Electrostatic energy          :        -287.99769540 Ha       -7836.81602466 eV
  | Energy correction for multipole
  | error in Hartree potential    :           0.00035281 Ha           0.00960044 eV
  | Sum of eigenvalues per atom                           :        -330.87586529 eV
  | Total energy (T->0) per atom                          :        -597.06460499 eV  <-- do not rely on this value for anything but (periodic) metals
  | Electronic free energy per atom                       :        -597.06500798 eV

  Self-consistency convergence accuracy:
  | Change of charge density      : 0.4998E-01
  | Change of sum of eigenvalues  : 0.7429E+01 eV
  | Change of total energy        : 0.1979E-01 eV

  End self-consistency iteration #     4       :  max(cpu_time)    wall_clock(cpu1)
  | Time for this iteration                    :        0.411 s           0.412 s
  | Charge density update                      :        0.132 s           0.132 s
  | Density mixing                             :        0.004 s           0.004 s
  | Hartree multipole update                   :        0.002 s           0.003 s
  | Hartree multipole summation                :        0.072 s           0.072 s
  | Integration                                :        0.192 s           0.192 s
  | Solution of K.-S. eqns.                    :        0.008 s           0.009 s
  | Total energy evaluation                    :        0.000 s           0.000 s
------------------------------------------------------------

------------------------------------------------------------
          Begin self-consistency iteration #    5

  Date     :  20150727, Time     :  125250.209
------------------------------------------------------------
  Evaluating new KS density.
  Integration grid: deviation in total charge (<rho> - N_e) =  -6.762946E-11
  Pulay mixing of updated and previous charge densities.

  Evaluating partitioned Hartree potential by multipole expansion.
  | Analytical far-field extrapolation by fixed multipoles:
  | Hartree multipole sum: apparent total charge =  -0.220002E-05
  Summing up the Hartree potential.
  Time summed over all CPUs for potential: real work        0.571 s, elapsed        0.575 s
  | RMS charge density error from multipole expansion :   0.116476E-01

  Integrating Hamiltonian matrix: batch-based integration.
  Time summed over all CPUs for integration: real work        1.493 s, elapsed        1.536 s

  Updating Kohn-Sham eigenvalues, eigenvectors, occupation numbers, and Fermi level.
  Solving generalized eigenproblem
  Updating Kohn-Sham eigenvalues and eigenfunctions.
  Solving real generalised eigenvalue problem by standard LAPACK (fast)
  Determining occupation numbers for Kohn-Sham eigenstates.
  | Chemical potential (Fermi level) in eV                 : -.21062820E+01
  | Error in electron count due to remaining E_F inaccuracy: -.68063244E-09
  | Maximum occupation number of highest empty state:  0.00E+00

  Highest occupied state (VBM) at     -8.87764279 eV
  | Occupation number:      2.00000000

  Lowest unoccupied state (CBM) at    -2.10628197 eV
  | Occupation number:      1.00000000

  Overall HOMO-LUMO gap:      6.77136082 eV.

  Total energy components:
  | Sum of eigenvalues            :         -85.14313255 Ha       -2316.86251738 eV
  | XC energy correction          :         -18.90226281 Ha        -514.35674128 eV
  | XC potential correction       :          24.16322221 Ha         657.51473031 eV
  | Free-atom electrostatic energy:         -71.28893346 Ha       -1939.87057891 eV
  | Hartree energy correction     :          -2.42079749 Ha         -65.87325132 eV
  | van der Waals energy corr.    :           0.00000000 Ha           0.00000000 eV
  | Entropy correction            :          -0.00010367 Ha          -0.00282095 eV
  | ---------------------------
  | Total energy                  :        -153.59190410 Ha       -4179.44835857 eV
  | Total energy, T -> 0          :        -153.59200777 Ha       -4179.45117952 eV  <-- do not rely on this value for anything but (periodic) metals
  | Electronic free energy        :        -153.59211144 Ha       -4179.45400047 eV

  Derived energy quantities:
  | Kinetic energy                :         153.33271836 Ha        4172.39555579 eV
  | Electrostatic energy          :        -288.02235965 Ha       -7837.48717308 eV
  | Energy correction for multipole
  | error in Hartree potential    :           0.00028166 Ha           0.00766441 eV
  | Sum of eigenvalues per atom                           :        -330.98035963 eV
  | Total energy (T->0) per atom                          :        -597.06445422 eV  <-- do not rely on this value for anything but (periodic) metals
  | Electronic free energy per atom                       :        -597.06485721 eV

  Self-consistency convergence accuracy:
  | Change of charge density      : 0.7181E-02
  | Change of sum of eigenvalues  : -.7315E+00 eV
  | Change of total energy        : 0.1055E-02 eV

  End self-consistency iteration #     5       :  max(cpu_time)    wall_clock(cpu1)
  | Time for this iteration                    :        0.412 s           0.413 s
  | Charge density update                      :        0.132 s           0.132 s
  | Density mixing                             :        0.004 s           0.004 s
  | Hartree multipole update                   :        0.002 s           0.003 s
  | Hartree multipole summation                :        0.073 s           0.072 s
  | Integration                                :        0.192 s           0.193 s
  | Solution of K.-S. eqns.                    :        0.009 s           0.008 s
  | Total energy evaluation                    :        0.000 s           0.001 s
------------------------------------------------------------

------------------------------------------------------------
          Begin self-consistency iteration #    6

  Date     :  20150727, Time     :  125250.622
------------------------------------------------------------
  Evaluating new KS density.
  Integration grid: deviation in total charge (<rho> - N_e) =  -6.806289E-10
  Pulay mixing of updated and previous charge densities.

  Evaluating partitioned Hartree potential by multipole expansion.
  | Analytical far-field extrapolation by fixed multipoles:
  | Hartree multipole sum: apparent total charge =  -0.220332E-05
  Summing up the Hartree potential.
  Time summed over all CPUs for potential: real work        0.571 s, elapsed        0.574 s
  | RMS charge density error from multipole expansion :   0.117597E-01

  Integrating Hamiltonian matrix: batch-based integration.
  Time summed over all CPUs for integration: real work        1.490 s, elapsed        1.528 s

  Updating Kohn-Sham eigenvalues, eigenvectors, occupation numbers, and Fermi level.
  Solving generalized eigenproblem
  Updating Kohn-Sham eigenvalues and eigenfunctions.
  Solving real generalised eigenvalue problem by standard LAPACK (fast)
  Determining occupation numbers for Kohn-Sham eigenstates.
  | Chemical potential (Fermi level) in eV                 : -.21178089E+01
  | Error in electron count due to remaining E_F inaccuracy: -.47961279E-08
  | Maximum occupation number of highest empty state:  0.00E+00

  Highest occupied state (VBM) at     -8.90201259 eV
  | Occupation number:      2.00000000

  Lowest unoccupied state (CBM) at    -2.11780886 eV
  | Occupation number:      1.00000000

  Overall HOMO-LUMO gap:      6.78420373 eV.

  Total energy components:
  | Sum of eigenvalues            :         -85.16104120 Ha       -2317.34983655 eV
  | XC energy correction          :         -18.90087088 Ha        -514.31886498 eV
  | XC potential correction       :          24.16129482 Ha         657.46228338 eV
  | Free-atom electrostatic energy:         -71.28893346 Ha       -1939.87057891 eV
  | Hartree energy correction     :          -2.40236059 Ha         -65.37155767 eV
  | van der Waals energy corr.    :           0.00000000 Ha           0.00000000 eV
  | Entropy correction            :          -0.00010367 Ha          -0.00282095 eV
  | ---------------------------
  | Total energy                  :        -153.59191131 Ha       -4179.44855473 eV
  | Total energy, T -> 0          :        -153.59201498 Ha       -4179.45137568 eV  <-- do not rely on this value for anything but (periodic) metals
  | Electronic free energy        :        -153.59211865 Ha       -4179.45419663 eV

  Derived energy quantities:
  | Kinetic energy                :         153.32654039 Ha        4172.22744454 eV
  | Electrostatic energy          :        -288.01758081 Ha       -7837.35713429 eV
  | Energy correction for multipole
  | error in Hartree potential    :           0.00022566 Ha           0.00614060 eV
  | Sum of eigenvalues per atom                           :        -331.04997665 eV
  | Total energy (T->0) per atom                          :        -597.06448224 eV  <-- do not rely on this value for anything but (periodic) metals
  | Electronic free energy per atom                       :        -597.06488523 eV

  Self-consistency convergence accuracy:
  | Change of charge density      : 0.3392E-02
  | Change of sum of eigenvalues  : -.4873E+00 eV
  | Change of total energy        : -.1962E-03 eV

  End self-consistency iteration #     6       :  max(cpu_time)    wall_clock(cpu1)
  | Time for this iteration                    :        0.413 s           0.412 s
  | Charge density update                      :        0.132 s           0.132 s
  | Density mixing                             :        0.005 s           0.005 s
  | Hartree multipole update                   :        0.003 s           0.002 s
  | Hartree multipole summation                :        0.072 s           0.073 s
  | Integration                                :        0.192 s           0.191 s
  | Solution of K.-S. eqns.                    :        0.008 s           0.009 s
  | Total energy evaluation                    :        0.000 s           0.000 s
------------------------------------------------------------

------------------------------------------------------------
          Begin self-consistency iteration #    7

  Date     :  20150727, Time     :  125251.034
------------------------------------------------------------
  Evaluating new KS density.
  Integration grid: deviation in total charge (<rho> - N_e) =  -4.796121E-09
  Pulay mixing of updated and previous charge densities.

  Evaluating partitioned Hartree potential by multipole expansion.
  | Analytical far-field extrapolation by fixed multipoles:
  | Hartree multipole sum: apparent total charge =  -0.218648E-05
  Summing up the Hartree potential.
  Time summed over all CPUs for potential: real work        0.571 s, elapsed        0.574 s
  | RMS charge density error from multipole expansion :   0.118034E-01

  Integrating Hamiltonian matrix: batch-based integration.
  Time summed over all CPUs for integration: real work        1.492 s, elapsed        1.562 s

  Updating Kohn-Sham eigenvalues, eigenvectors, occupation numbers, and Fermi level.
  Solving generalized eigenproblem
  Updating Kohn-Sham eigenvalues and eigenfunctions.
  Solving real generalised eigenvalue problem by standard LAPACK (fast)
  Determining occupation numbers for Kohn-Sham eigenstates.
  | Chemical potential (Fermi level) in eV                 : -.21258463E+01
  | Error in electron count due to remaining E_F inaccuracy: -.33935308E-08
  | Maximum occupation number of highest empty state:  0.00E+00

  Highest occupied state (VBM) at     -8.90926738 eV
  | Occupation number:      2.00000000

  Lowest unoccupied state (CBM) at    -2.12584626 eV
  | Occupation number:      1.00000000

  Overall HOMO-LUMO gap:      6.78342112 eV.

  Total energy components:
  | Sum of eigenvalues            :         -85.16982355 Ha       -2317.58881633 eV
  | XC energy correction          :         -18.90061571 Ha        -514.31192124 eV
  | XC potential correction       :          24.16091375 Ha         657.45191403 eV
  | Free-atom electrostatic energy:         -71.28893346 Ha       -1939.87057891 eV
  | Hartree energy correction     :          -2.39345411 Ha         -65.12919999 eV
  | van der Waals energy corr.    :           0.00000000 Ha           0.00000000 eV
  | Entropy correction            :          -0.00010367 Ha          -0.00282095 eV
  | ---------------------------
  | Total energy                  :        -153.59191306 Ha       -4179.44860244 eV
  | Total energy, T -> 0          :        -153.59201673 Ha       -4179.45142339 eV  <-- do not rely on this value for anything but (periodic) metals
  | Electronic free energy        :        -153.59212040 Ha       -4179.45424433 eV

  Derived energy quantities:
  | Kinetic energy                :         153.33309865 Ha        4172.40590405 eV
  | Electrostatic energy          :        -288.02439601 Ha       -7837.54258525 eV
  | Energy correction for multipole
  | error in Hartree potential    :           0.00018796 Ha           0.00511465 eV
  | Sum of eigenvalues per atom                           :        -331.08411662 eV
  | Total energy (T->0) per atom                          :        -597.06448906 eV  <-- do not rely on this value for anything but (periodic) metals
  | Electronic free energy per atom                       :        -597.06489205 eV

  Self-consistency convergence accuracy:
  | Change of charge density      : 0.1839E-02
  | Change of sum of eigenvalues  : -.2390E+00 eV
  | Change of total energy        : -.4770E-04 eV

  End self-consistency iteration #     7       :  max(cpu_time)    wall_clock(cpu1)
  | Time for this iteration                    :        0.417 s           0.418 s
  | Charge density update                      :        0.132 s           0.133 s
  | Density mixing                             :        0.006 s           0.005 s
  | Hartree multipole update                   :        0.002 s           0.003 s
  | Hartree multipole summation                :        0.073 s           0.072 s
  | Integration                                :        0.195 s           0.196 s
  | Solution of K.-S. eqns.                    :        0.009 s           0.008 s
  | Total energy evaluation                    :        0.000 s           0.001 s
------------------------------------------------------------

------------------------------------------------------------
          Begin self-consistency iteration #    8

  Date     :  20150727, Time     :  125251.452
------------------------------------------------------------
  Evaluating new KS density.
  Integration grid: deviation in total charge (<rho> - N_e) =  -3.393534E-09
  Pulay mixing of updated and previous charge densities.

  Evaluating partitioned Hartree potential by multipole expansion.
  | Analytical far-field extrapolation by fixed multipoles:
  | Hartree multipole sum: apparent total charge =  -0.216966E-05
  Summing up the Hartree potential.
  Time summed over all CPUs for potential: real work        0.571 s, elapsed        0.574 s
  | RMS charge density error from multipole expansion :   0.117986E-01

  Integrating Hamiltonian matrix: batch-based integration.
  Time summed over all CPUs for integration: real work        1.488 s, elapsed        1.528 s

  Updating Kohn-Sham eigenvalues, eigenvectors, occupation numbers, and Fermi level.
  Solving generalized eigenproblem
  Updating Kohn-Sham eigenvalues and eigenfunctions.
  Solving real generalised eigenvalue problem by standard LAPACK (fast)
  Determining occupation numbers for Kohn-Sham eigenstates.
  | Chemical potential (Fermi level) in eV                 : -.21281803E+01
  | Error in electron count due to remaining E_F inaccuracy: -.28608440E-08
  | Maximum occupation number of highest empty state:  0.00E+00

  Highest occupied state (VBM) at     -8.92016752 eV
  | Occupation number:      2.00000000

  Lowest unoccupied state (CBM) at    -2.12818033 eV
  | Occupation number:      1.00000000

  Overall HOMO-LUMO gap:      6.79198719 eV.

  Total energy components:
  | Sum of eigenvalues            :         -85.17474442 Ha       -2317.72272015 eV
  | XC energy correction          :         -18.90019620 Ha        -514.30050594 eV
  | XC potential correction       :          24.16036676 Ha         657.43702945 eV
  | Free-atom electrostatic energy:         -71.28893346 Ha       -1939.87057891 eV
  | Hartree energy correction     :          -2.38840591 Ha         -64.99183146 eV
  | van der Waals energy corr.    :           0.00000000 Ha           0.00000000 eV
  | Entropy correction            :          -0.00010367 Ha          -0.00282095 eV
  | ---------------------------
  | Total energy                  :        -153.59191323 Ha       -4179.44860701 eV
  | Total energy, T -> 0          :        -153.59201690 Ha       -4179.45142796 eV  <-- do not rely on this value for anything but (periodic) metals
  | Electronic free energy        :        -153.59212057 Ha       -4179.45424891 eV

  Derived energy quantities:
  | Kinetic energy                :         153.33615293 Ha        4172.48901520 eV
  | Electrostatic energy          :        -288.02786996 Ha       -7837.63711627 eV
  | Energy correction for multipole
  | error in Hartree potential    :           0.00017279 Ha           0.00470172 eV
  | Sum of eigenvalues per atom                           :        -331.10324574 eV
  | Total energy (T->0) per atom                          :        -597.06448971 eV  <-- do not rely on this value for anything but (periodic) metals
  | Electronic free energy per atom                       :        -597.06489270 eV

  Self-consistency convergence accuracy:
  | Change of charge density      : 0.7360E-03
  | Change of sum of eigenvalues  : -.1339E+00 eV
  | Change of total energy        : -.4577E-05 eV

  End self-consistency iteration #     8       :  max(cpu_time)    wall_clock(cpu1)
  | Time for this iteration                    :        0.414 s           0.413 s
  | Charge density update                      :        0.133 s           0.132 s
  | Density mixing                             :        0.006 s           0.006 s
  | Hartree multipole update                   :        0.002 s           0.003 s
  | Hartree multipole summation                :        0.073 s           0.072 s
  | Integration                                :        0.191 s           0.192 s
  | Solution of K.-S. eqns.                    :        0.009 s           0.008 s
  | Total energy evaluation                    :        0.000 s           0.000 s
------------------------------------------------------------

------------------------------------------------------------
          Begin self-consistency iteration #    9

  Date     :  20150727, Time     :  125251.866
------------------------------------------------------------
  Evaluating new KS density.
  Integration grid: deviation in total charge (<rho> - N_e) =  -2.860862E-09
  Pulay mixing of updated and previous charge densities.

  Evaluating partitioned Hartree potential by multipole expansion.
  | Analytical far-field extrapolation by fixed multipoles:
  | Hartree multipole sum: apparent total charge =  -0.216755E-05
  Summing up the Hartree potential.
  Time summed over all CPUs for potential: real work        0.571 s, elapsed        0.574 s
  | RMS charge density error from multipole expansion :   0.117984E-01

  Integrating Hamiltonian matrix: batch-based integration.
  Time summed over all CPUs for integration: real work        1.489 s, elapsed        1.533 s

  Updating Kohn-Sham eigenvalues, eigenvectors, occupation numbers, and Fermi level.
  Solving generalized eigenproblem
  Updating Kohn-Sham eigenvalues and eigenfunctions.
  Solving real generalised eigenvalue problem by standard LAPACK (fast)
  Determining occupation numbers for Kohn-Sham eigenstates.
  | Chemical potential (Fermi level) in eV                 : -.21282606E+01
  | Error in electron count due to remaining E_F inaccuracy: -.31168987E-08
  | Maximum occupation number of highest empty state:  0.00E+00

  Highest occupied state (VBM) at     -8.91958632 eV
  | Occupation number:      2.00000000

  Lowest unoccupied state (CBM) at    -2.12826058 eV
  | Occupation number:      1.00000000

  Overall HOMO-LUMO gap:      6.79132573 eV.

  Total energy components:
  | Sum of eigenvalues            :         -85.17435804 Ha       -2317.71220617 eV
  | XC energy correction          :         -18.90024974 Ha        -514.30196276 eV
  | XC potential correction       :          24.16043722 Ha         657.43894684 eV
  | Free-atom electrostatic energy:         -71.28893346 Ha       -1939.87057891 eV
  | Hartree energy correction     :          -2.38880923 Ha         -65.00280644 eV
  | van der Waals energy corr.    :           0.00000000 Ha           0.00000000 eV
  | Entropy correction            :          -0.00010367 Ha          -0.00282095 eV
  | ---------------------------
  | Total energy                  :        -153.59191325 Ha       -4179.44860743 eV
  | Total energy, T -> 0          :        -153.59201691 Ha       -4179.45142838 eV  <-- do not rely on this value for anything but (periodic) metals
  | Electronic free energy        :        -153.59212058 Ha       -4179.45424933 eV

  Derived energy quantities:
  | Kinetic energy                :         153.33685211 Ha        4172.50804068 eV
  | Electrostatic energy          :        -288.02851561 Ha       -7837.65468536 eV
  | Energy correction for multipole
  | error in Hartree potential    :           0.00017172 Ha           0.00467283 eV
  | Sum of eigenvalues per atom                           :        -331.10174374 eV
  | Total energy (T->0) per atom                          :        -597.06448977 eV  <-- do not rely on this value for anything but (periodic) metals
  | Electronic free energy per atom                       :        -597.06489276 eV

  Self-consistency convergence accuracy:
  | Change of charge density      : 0.1920E-03
  | Change of sum of eigenvalues  : 0.1051E-01 eV
  | Change of total energy        : -.4195E-06 eV

  End self-consistency iteration #     9       :  max(cpu_time)    wall_clock(cpu1)
  | Time for this iteration                    :        0.415 s           0.414 s
  | Charge density update                      :        0.132 s           0.132 s
  | Density mixing                             :        0.007 s           0.006 s
  | Hartree multipole update                   :        0.002 s           0.003 s
  | Hartree multipole summation                :        0.072 s           0.072 s
  | Integration                                :        0.192 s           0.192 s
  | Solution of K.-S. eqns.                    :        0.008 s           0.009 s
  | Total energy evaluation                    :        0.000 s           0.000 s
------------------------------------------------------------

------------------------------------------------------------
          Begin self-consistency iteration #   10

  Date     :  20150727, Time     :  125252.280
------------------------------------------------------------
  Evaluating new KS density.
  Integration grid: deviation in total charge (<rho> - N_e) =  -3.116906E-09
  Pulay mixing of updated and previous charge densities.

  Evaluating partitioned Hartree potential by multipole expansion.
  | Analytical far-field extrapolation by fixed multipoles:
  | Hartree multipole sum: apparent total charge =  -0.215654E-05
  Summing up the Hartree potential.
  Time summed over all CPUs for potential: real work        0.571 s, elapsed        0.574 s
  | RMS charge density error from multipole expansion :   0.117988E-01

  Integrating Hamiltonian matrix: batch-based integration.
  Time summed over all CPUs for integration: real work        1.489 s, elapsed        1.534 s

  Updating Kohn-Sham eigenvalues, eigenvectors, occupation numbers, and Fermi level.
  Solving generalized eigenproblem
  Updating Kohn-Sham eigenvalues and eigenfunctions.
  Solving real generalised eigenvalue problem by standard LAPACK (fast)
  Determining occupation numbers for Kohn-Sham eigenstates.
  | Chemical potential (Fermi level) in eV                 : -.21279690E+01
  | Error in electron count due to remaining E_F inaccuracy: -.41059920E-08
  | Maximum occupation number of highest empty state:  0.00E+00

  Highest occupied state (VBM) at     -8.91773100 eV
  | Occupation number:      2.00000000

  Lowest unoccupied state (CBM) at    -2.12796901 eV
  | Occupation number:      1.00000000

  Overall HOMO-LUMO gap:      6.78976199 eV.

  Total energy components:
  | Sum of eigenvalues            :         -85.17337590 Ha       -2317.68548081 eV
  | XC energy correction          :         -18.90034173 Ha        -514.30446612 eV
  | XC potential correction       :          24.16055878 Ha         657.44225480 eV
  | Free-atom electrostatic energy:         -71.28893346 Ha       -1939.87057891 eV
  | Hartree energy correction     :          -2.38982103 Ha         -65.03033898 eV
  | van der Waals energy corr.    :           0.00000000 Ha           0.00000000 eV
  | Entropy correction            :          -0.00010367 Ha          -0.00282095 eV
  | ---------------------------
  | Total energy                  :        -153.59191334 Ha       -4179.44861002 eV
  | Total energy, T -> 0          :        -153.59201701 Ha       -4179.45143097 eV  <-- do not rely on this value for anything but (periodic) metals
  | Electronic free energy        :        -153.59212068 Ha       -4179.45425191 eV

  Derived energy quantities:
  | Kinetic energy                :         153.33676302 Ha        4172.50561646 eV
  | Electrostatic energy          :        -288.02833462 Ha       -7837.64976036 eV
  | Energy correction for multipole
  | error in Hartree potential    :           0.00016863 Ha           0.00458868 eV
  | Sum of eigenvalues per atom                           :        -331.09792583 eV
  | Total energy (T->0) per atom                          :        -597.06449014 eV  <-- do not rely on this value for anything but (periodic) metals
  | Electronic free energy per atom                       :        -597.06489313 eV

  Self-consistency convergence accuracy:
  | Change of charge density      : 0.1373E-03
  | Change of sum of eigenvalues  : 0.2673E-01 eV
  | Change of total energy        : -.2584E-05 eV

  End self-consistency iteration #    10       :  max(cpu_time)    wall_clock(cpu1)
  | Time for this iteration                    :        0.415 s           0.416 s
  | Charge density update                      :        0.132 s           0.132 s
  | Density mixing                             :        0.007 s           0.008 s
  | Hartree multipole update                   :        0.003 s           0.002 s
  | Hartree multipole summation                :        0.072 s           0.072 s
  | Integration                                :        0.192 s           0.192 s
  | Solution of K.-S. eqns.                    :        0.009 s           0.008 s
  | Total energy evaluation                    :        0.000 s           0.000 s
------------------------------------------------------------

------------------------------------------------------------
          Begin self-consistency iteration #   11

  Date     :  20150727, Time     :  125252.696
------------------------------------------------------------
  Evaluating new KS density.
  Integration grid: deviation in total charge (<rho> - N_e) =  -4.105996E-09
  Pulay mixing of updated and previous charge densities.

  Evaluating partitioned Hartree potential by multipole expansion.
  | Analytical far-field extrapolation by fixed multipoles:
  | Hartree multipole sum: apparent total charge =  -0.215142E-05
  Summing up the Hartree potential.
  Time summed over all CPUs for potential: real work        0.571 s, elapsed        0.574 s
  | RMS charge density error from multipole expansion :   0.117988E-01

  Integrating Hamiltonian matrix: batch-based integration.
  Time summed over all CPUs for integration: real work        1.488 s, elapsed        1.532 s

[...]

  Highest occupied state (VBM) at     -8.91770028 eV
  | Occupation number:      2.00000000

  Lowest unoccupied state (CBM) at    -2.12787735 eV
  | Occupation number:      1.00000000

  Overall HOMO-LUMO gap:      6.78982293 eV.

  Self-consistency cycle converged.

  End self-consistency iteration #    14       :  max(cpu_time)    wall_clock(cpu1)
  | Time for this iteration                    :        1.061 s           1.061 s
  | Charge density & force component update    :        0.660 s           0.660 s
  | Density mixing                             :        0.008 s           0.008 s
  | Hartree multipole update                   :        0.002 s           0.002 s
  | Hartree multipole summation                :        0.189 s           0.189 s
  | Integration                                :        0.193 s           0.193 s
  | Solution of K.-S. eqns.                    :        0.008 s           0.008 s
  | Total energy evaluation                    :        0.001 s           0.001 s
------------------------------------------------------------
  Obtaining max. number of non-zero basis functions in each batch .
  Evaluating KS electron density on previously omitted grid points.
  Evaluating non-empirical van der Waals correction (Tkatchenko/Scheffler 2009).
  Performing Hirshfeld analysis of fragment charges and moments.
  ----------------------------------------------------------------------
  | Atom     1: O
  |   Hirshfeld charge        :     -0.14330420
  |   Free atom volume        :     23.95238533
  |   Hirshfeld volume        :     24.47962559
  |   Hirshfeld dipole vector :     -0.01142509       0.03207466       0.01047083
  |   Hirshfeld dipole moment :      0.03562239
  |   Hirshfeld second moments:      0.03295444      -0.01100647      -0.00902570
  |                                 -0.01100647      -0.01491190      -0.03431140
  |                                 -0.00902570      -0.03431140       0.00910407
  ----------------------------------------------------------------------
  | Atom     2: H
  |   Hirshfeld charge        :      0.08829388
  |   Free atom volume        :     10.44207651
  |   Hirshfeld volume        :     12.33355950
  |   Hirshfeld dipole vector :     -0.01751927       0.00589040      -0.01057425
  |   Hirshfeld dipole moment :      0.02129405
  |   Hirshfeld second moments:     -0.00683706      -0.00063072       0.00511886
  |                                 -0.00063072      -0.00480185      -0.00442389
  |                                  0.00511886      -0.00442389       0.00338893
  ----------------------------------------------------------------------
  | Atom     3: H
  |   Hirshfeld charge        :      0.02594994
  |   Free atom volume        :     10.44207651
  |   Hirshfeld volume        :     18.71195158
  |   Hirshfeld dipole vector :     -0.04812163      -0.01476807      -0.02252924
  |   Hirshfeld dipole moment :      0.05514847
  |   Hirshfeld second moments:     -0.12682321      -0.03044118      -0.01704010
  |                                 -0.03044118      -0.11610588      -0.01972615
  |                                 -0.01704010      -0.01972615      -0.12089535
  ----------------------------------------------------------------------
  | Atom     4: H
  |   Hirshfeld charge        :      0.05315414
  |   Free atom volume        :     10.44207651
  |   Hirshfeld volume        :     17.03827159
  |   Hirshfeld dipole vector :     -0.02537321      -0.00121014      -0.02847412
  |   Hirshfeld dipole moment :      0.03815809
  |   Hirshfeld second moments:     -0.06560719      -0.00794653      -0.01177560
  |                                 -0.00794653      -0.07866136      -0.02290344
  |                                 -0.01177560      -0.02290344      -0.11339303
  ----------------------------------------------------------------------
  | Atom     5: O
  |   Hirshfeld charge        :     -0.21662435
  |   Free atom volume        :     23.95238533
  |   Hirshfeld volume        :     23.30989373
  |   Hirshfeld dipole vector :      0.02660766      -0.00036926      -0.02624046
  |   Hirshfeld dipole moment :      0.03737199
  |   Hirshfeld second moments:     -0.02821821       0.00123600       0.03966427
  |                                  0.00123600       0.04699581       0.00724089
  |                                  0.03966427       0.00724089       0.03781678
  ----------------------------------------------------------------------
  | Atom     6: H
  |   Hirshfeld charge        :      0.08332683
  |   Free atom volume        :     10.44207651
  |   Hirshfeld volume        :     14.27126870
  |   Hirshfeld dipole vector :     -0.00273529       0.03467798       0.00555252
  |   Hirshfeld dipole moment :      0.03522605
  |   Hirshfeld second moments:     -0.06674457      -0.01309346       0.00288313
  |                                 -0.01309346      -0.00183845       0.00077135
  |                                  0.00288313       0.00077135      -0.02368291
  ----------------------------------------------------------------------
  | Atom     7: H
  |   Hirshfeld charge        :      0.10923448
  |   Free atom volume        :     10.44207651
  |   Hirshfeld volume        :     11.82245932
  |   Hirshfeld dipole vector :     -0.02223244      -0.00147701      -0.06849795
  |   Hirshfeld dipole moment :      0.07203077
  |   Hirshfeld second moments:     -0.00214776       0.00434293       0.02310962
  |                                  0.00434293       0.03353352       0.00924723
  |                                  0.02310962       0.00924723       0.02366474
  ----------------------------------------------------------------------


  Total energy components:
  | Sum of eigenvalues            :         -85.17324903 Ha       -2317.68202855 eV
  | XC energy correction          :         -18.90035316 Ha        -514.30477690 eV
  | XC potential correction       :          24.16057541 Ha         657.44270728 eV
  | Free-atom electrostatic energy:         -71.28893346 Ha       -1939.87057891 eV
  | Hartree energy correction     :          -2.38995316 Ha         -65.03393442 eV
  | van der Waals energy corr.    :          -0.00025899 Ha          -0.00704755 eV
  | Entropy correction            :          -0.00010367 Ha          -0.00282095 eV
  | ---------------------------
  | Total energy                  :        -153.59217239 Ha       -4179.45565905 eV
  | Total energy, T -> 0          :        -153.59227606 Ha       -4179.45848000 eV  <-- do not rely on this value for anything but (periodic) metals
  | Electronic free energy        :        -153.59237972 Ha       -4179.46130095 eV

  Derived energy quantities:
  | Kinetic energy                :         153.33672225 Ha        4172.50450714 eV
  | Electrostatic energy          :        -288.02828249 Ha       -7837.64834173 eV
  | Energy correction for multipole
  | error in Hartree potential    :           0.00016674 Ha           0.00453727 eV
  | Sum of eigenvalues per atom                           :        -331.09743265 eV
  | Total energy (T->0) per atom                          :        -597.06549714 eV  <-- do not rely on this value for anything but (periodic) metals
  | Electronic free energy per atom                       :        -597.06590014 eV

  atomic forces [eV/Ang]:
  -----------------------
  atom #    1
   Hellmann-Feynman + Multipole  : -.191140E+01 -.832948E+01 -.699553E+01
   Pulay + GGA                   : 0.161301E+01 0.899625E+01 0.650298E+01
   Van der Waals               : 0.264038E-02 -.557968E-02 0.260828E-02
   ----------------------------------------------------------------
   Total forces(   1)            : -.295749E+00 0.661186E+00 -.489943E+00
  atom #    2
   Hellmann-Feynman + Multipole  : 0.117266E+00 -.436918E+00 0.127764E+00
   Pulay + GGA                   : -.265952E-01 0.557678E-01 -.321563E-01
   Van der Waals               : 0.282205E-04 -.865979E-04 0.344511E-04
   ----------------------------------------------------------------
   Total forces(   2)            : 0.906987E-01 -.381237E+00 0.956422E-01
  atom #    3
   Hellmann-Feynman + Multipole  : -.477440E-01 -.123083E+00 0.575802E-01
   Pulay + GGA                   : 0.173413E+00 0.607383E-01 0.103710E-01
   Van der Waals               : 0.324007E-02 -.315054E-02 0.176058E-02
   ----------------------------------------------------------------
   Total forces(   3)            : 0.128909E+00 -.654954E-01 0.697117E-01
  atom #    4
   Hellmann-Feynman + Multipole  : 0.418440E-01 -.490857E-01 0.713673E-01
   Pulay + GGA                   : -.579140E-01 -.207167E-01 0.167026E+00
   Van der Waals               : 0.952867E-03 -.344644E-02 0.230098E-02
   ----------------------------------------------------------------
   Total forces(   4)            : -.151171E-01 -.732489E-01 0.240694E+00
  atom #    5
   Hellmann-Feynman + Multipole  : -.635846E+01 -.714796E+01 0.898864E+01
   Pulay + GGA                   : 0.681311E+01 0.656950E+01 -.587102E+01
   Van der Waals               : -.188953E-02 0.271975E-02 -.152080E-02
   ----------------------------------------------------------------
   Total forces(   5)            : 0.452766E+00 -.575741E+00 0.311610E+01
  atom #    6
   Hellmann-Feynman + Multipole  : -.815672E-01 -.137248E+00 -.143569E+00
   Pulay + GGA                   : 0.755769E-01 0.116650E+00 0.554893E-01
   Van der Waals               : -.148813E-02 0.498256E-02 -.134670E-02
   ----------------------------------------------------------------
   Total forces(   6)            : -.747838E-02 -.156155E-01 -.894267E-01
  atom #    7
   Hellmann-Feynman + Multipole  : -.312715E+00 0.423605E+00 -.279812E+01
   Pulay + GGA                   : -.332546E-01 0.209217E-01 -.141232E+00
   Van der Waals               : -.348386E-02 0.456095E-02 -.383679E-02
   ----------------------------------------------------------------
   Total forces(   7)            : -.349453E+00 0.449088E+00 -.294319E+01
  Timings for vdw_correction_hirshfeld (Tkatchenko-Scheffler 2009):
  | CPU time:        1.061 s, Wall clock time:        1.061 s.
  Removing unitary transformations (pure translations, rotations) from forces on atoms.
  Atomic forces before filtering:
  | Net force on center of mass :  0.457609E-02 -.106408E-02 -.415997E-03 eV/A
  | Net torque on center of mass:  0.683456E-02 -.130812E-02 -.707782E-03 eV
  Atomic forces after filtering:
  | Net force on center of mass :  -.446015E-16 -.892031E-16 -.356812E-15 eV/A
  | Net torque on center of mass:  0.944085E-16 0.000000E+00 -.141613E-15 eV
 
  Energy and forces in a compact form:
  | Total energy uncorrected      :         -0.417945565905195E+04 eV
  | Total energy corrected        :         -0.417945847999986E+04 eV  <-- do not rely on this value for anything but (periodic) metals
  | Electronic free energy        :         -0.417946130094778E+04 eV
  Total atomic forces (unitary forces cleaned) [eV/Ang]:
  |   1         -0.296627150665710E+00          0.661436748944184E+00         -0.489221059546626E+00
  |   2          0.898700988628558E-01         -0.381109193850423E+00          0.960085740686764E-01
  |   3          0.128192704225367E+00         -0.656383177150840E-01          0.692922113444491E-01
  |   4         -0.151743575785830E-01         -0.719918183702352E-01          0.241810291347633E+00
  |   5          0.452097241562366E+00         -0.575668505027534E+00          0.311602403039651E+01
  |   6         -0.746849591851241E-02         -0.154268405407335E-01         -0.906480348708327E-01
  |   7         -0.350890040487783E+00          0.448397926559826E+00         -0.294326601273981E+01
 
  ------------------------------------ 
  Start decomposition of the XC Energy 
  ------------------------------------ 
  Hartree-Fock part   :          0.000000000 Ha              0.000000000 eV
  ------------------------------------ 
  X Energy            :        -18.226267055 Ha           -495.961960822 eV
  C Energy GGA        :         -0.674086101 Ha            -18.342816081 eV
  Total XC Energy     :        -18.900353156 Ha           -514.304776902 eV
  LDA X and C from self-consistent density 
  X Energy LDA        :        -16.427741139 Ha           -447.021580609 eV
  C Energy LDA        :         -1.357441212 Ha            -36.937854764 eV
  ------------------------------------ 
  End decomposition of the XC Energy 
  ------------------------------------ 
  Performing Hirshfeld analysis of fragment charges and moments.
  ----------------------------------------------------------------------
  | Atom     1: O
  |   Hirshfeld charge        :     -0.14330420
  |   Free atom volume        :     23.95238533
  |   Hirshfeld volume        :     24.47962559
  |   Hirshfeld dipole vector :     -0.01142509       0.03207466       0.01047083
  |   Hirshfeld dipole moment :      0.03562239
  |   Hirshfeld second moments:      0.03295444      -0.01100647      -0.00902570
  |                                 -0.01100647      -0.01491190      -0.03431140
  |                                 -0.00902570      -0.03431140       0.00910407
  ----------------------------------------------------------------------
  | Atom     2: H
  |   Hirshfeld charge        :      0.08829388
  |   Free atom volume        :     10.44207651
  |   Hirshfeld volume        :     12.33355950
  |   Hirshfeld dipole vector :     -0.01751927       0.00589040      -0.01057425
  |   Hirshfeld dipole moment :      0.02129405
  |   Hirshfeld second moments:     -0.00683706      -0.00063072       0.00511886
  |                                 -0.00063072      -0.00480185      -0.00442389
  |                                  0.00511886      -0.00442389       0.00338893
  ----------------------------------------------------------------------
  | Atom     3: H
  |   Hirshfeld charge        :      0.02594994
  |   Free atom volume        :     10.44207651
  |   Hirshfeld volume        :     18.71195158
  |   Hirshfeld dipole vector :     -0.04812163      -0.01476807      -0.02252924
  |   Hirshfeld dipole moment :      0.05514847
  |   Hirshfeld second moments:     -0.12682321      -0.03044118      -0.01704010
  |                                 -0.03044118      -0.11610588      -0.01972615
  |                                 -0.01704010      -0.01972615      -0.12089535
  ----------------------------------------------------------------------
  | Atom     4: H
  |   Hirshfeld charge        :      0.05315414
  |   Free atom volume        :     10.44207651
  |   Hirshfeld volume        :     17.03827159
  |   Hirshfeld dipole vector :     -0.02537321      -0.00121014      -0.02847412
  |   Hirshfeld dipole moment :      0.03815809
  |   Hirshfeld second moments:     -0.06560719      -0.00794653      -0.01177560
  |                                 -0.00794653      -0.07866136      -0.02290344
  |                                 -0.01177560      -0.02290344      -0.11339303
  ----------------------------------------------------------------------
  | Atom     5: O
  |   Hirshfeld charge        :     -0.21662435
  |   Free atom volume        :     23.95238533
  |   Hirshfeld volume        :     23.30989373
  |   Hirshfeld dipole vector :      0.02660766      -0.00036926      -0.02624046
  |   Hirshfeld dipole moment :      0.03737199
  |   Hirshfeld second moments:     -0.02821821       0.00123600       0.03966427
  |                                  0.00123600       0.04699581       0.00724089
  |                                  0.03966427       0.00724089       0.03781678
  ----------------------------------------------------------------------
  | Atom     6: H
  |   Hirshfeld charge        :      0.08332683
  |   Free atom volume        :     10.44207651
  |   Hirshfeld volume        :     14.27126870
  |   Hirshfeld dipole vector :     -0.00273529       0.03467798       0.00555252
  |   Hirshfeld dipole moment :      0.03522605
  |   Hirshfeld second moments:     -0.06674457      -0.01309346       0.00288313
  |                                 -0.01309346      -0.00183845       0.00077135
  |                                  0.00288313       0.00077135      -0.02368291
  ----------------------------------------------------------------------
  | Atom     7: H
  |   Hirshfeld charge        :      0.10923448
  |   Free atom volume        :     10.44207651
  |   Hirshfeld volume        :     11.82245932
  |   Hirshfeld dipole vector :     -0.02223244      -0.00147701      -0.06849795
  |   Hirshfeld dipole moment :      0.07203077
  |   Hirshfeld second moments:     -0.00214776       0.00434293       0.02310962
  |                                  0.00434293       0.03353352       0.00924723
  |                                  0.02310962       0.00924723       0.02366474
  ----------------------------------------------------------------------


------------------------------------------------------------------------------
  Final output of selected total energy values:

  The following output summarizes some interesting total energy values
  at the end of a run (AFTER all relaxation, molecular dynamics, etc.).

  | Total energy of the DFT / Hartree-Fock s.c.f. calculation      :          -4179.455659052 eV
  | Final zero-broadening corrected energy (caution - metals only) :          -4179.458480000 eV
  | For reference only, the value of 1 Hartree used in FHI-aims is :             27.211384500 eV

  Before relying on these values, please be sure to understand exactly which
  total energy value is referred to by a given number. Different objects may
  all carry the same name 'total energy'. Definitions:

  Total energy of the DFT / Hartree-Fock s.c.f. calculation:
  | Note that this energy does not include ANY quantities calculated after the
  | s.c.f. cycle, in particular not ANY RPA, MP2, etc. many-body perturbation terms.

  Final zero-broadening corrected energy:
  | For metallic systems only, a broadening of the occupation numbers at the Fermi
  | level can be extrapolated back to zero broadening by an electron-gas inspired
  | formula. For all systems that are not real metals, this value can be
  | meaningless and should be avoided.

------------------------------------------------------------------------------

------------------------------------------------------------
          Leaving FHI-aims.
          Date     :  20150727, Time     :  125255.163

          Computational steps:
          | Number of self-consistency cycles          :           14

          Detailed time accounting                     :  max(cpu_time)    wall_clock(cpu1)
          | Total time                                 :        7.752 s           7.761 s
          | Preparation time                           :        0.174 s           0.694 s
          | Grid partitioning                          :        0.064 s           0.064 s
          | Preloading free-atom quantities on grid    :        0.013 s           0.013 s
          | Free-atom superposition energy             :        0.020 s           0.020 s
          | Total time for integrations                :        2.985 s           2.985 s
          | Total time for solution of K.-S. equations :        0.152 s           0.152 s
          | Total time for density & force components  :        2.381 s           2.379 s
          | Total time for mixing                      :        0.076 s           0.077 s
          | Total time for Hartree multipole update    :        0.033 s           0.036 s
          | Total time for Hartree multipole sum       :        1.246 s           1.244 s
          | Total time for total energy evaluation     :        0.004 s           0.005 s
          | Total time for scaled ZORA corrections     :        0.000 s           0.000 s
          | Total time for TS (2009) vdW correction    :        0.013 s           0.013 s

          Have a nice day.
------------------------------------------------------------
