  MPI-parallelism will be employed.
------------------------------------------------------------
          Invoking FHI-aims ...
          Version 081213
          Compiled on 2013/08/29 at 17:41:06 on host generoso.

          When using FHI-aims, please cite the following reference:

          Volker Blum, Ralf Gehrke, Felix Hanke, Paula Havu,
          Ville Havu, Xinguo Ren, Karsten Reuter, and Matthias Scheffler,
          'Ab Initio Molecular Simulations with Numeric Atom-Centered Orbitals: FHI-aims',
          Computer Physics Communications 180, 2175-2196 (2009)

          For any questions about FHI-aims, please visit the aimsclub website
          with its forums and wiki. Contributions to both the forums and the
          wiki are warmly encouraged - they are for you, and everyone is welcome there.

------------------------------------------------------------

  Date     :  20150727, Time     :  123233.906
  Time zero on CPU 1             :   0.389930000000000E-01  s.
  Internal wall clock time zero  :           207232353.906  s.

  Using        8 parallel tasks.
  Task        0 on host gen59 reporting.
  Task        1 on host gen59 reporting.
  Task        2 on host gen59 reporting.
  Task        3 on host gen59 reporting.
  Task        4 on host gen59 reporting.
  Task        5 on host gen59 reporting.
  Task        6 on host gen59 reporting.
  Task        7 on host gen59 reporting.

  Performing system and environment tests:
  | Environment variable OMP_NUM_THREADS correctly set to 1.
  | Checking for scalapack...
  | No scalapack compiled in.

  Obtaining array dimensions for all initial allocations:
  
  -----------------------------------------------------------------------
  Parsing control.in (first pass over file, find array dimensions only).
  The contents of control.in will be repeated verbatim below
  unless switched off by setting 'verbatim_writeout .false.' .
  in the first line of control.in .
  -----------------------------------------------------------------------
  
  #########################################################################################
  #
  #  Volker Blum, FHI 2008 : Test run input file control.in
  #
  #########################################################################################
  #
  #  Physical model
  #
    xc                 rpbe
    spin               none
    relativistic       atomic_zora scalar
    charge             0.
   vdw_correction_hirshfeld
  #
  #  SCF convergence
  #
    occupation_type    gaussian 0.01
    mixer              pulay
      n_max_pulay        10
      charge_mix_param   0.1
    sc_accuracy_rho    5E-5
    sc_accuracy_eev    5E-3
    sc_accuracy_etot   5E-6
    sc_iter_limit      3000
  #
  #  Eigenvalue solver
  #
    KS_method          lapack
      empty_states       8
      basis_threshold    0.e-5
  #
  #  Efficiency
  #
  #   all previous settings are now default, except stratmann still
  #   undecided. Continue to handle stratmann with care, if at all.
  #
  #  partition_type stratmann
    partition_type rho_r2
  #  hartree_partition_type stratmann
  #
  #  Oprions for large clusters (100's of atoms: memory saving / better scaling)
  #
  # for periodic systems:
  #
    density_update_method orbital
    packed_matrix_format none
  #  k_grid 6 6 6
  #  output k_eigenvalue 1
  #  distributed_spline_storage .true.
  #
  #  Relaxation
  #
  #  relax_geometry   bfgs 5.e-3
    sc_accuracy_forces 5.E-4
    final_forces_cleaned .true.
  #
  #  Output options
  #
  #  output mulliken
    output Hirshfeld
  #  output dipole
  
  #harmonic_length_scale 0.001
  
  ################################################################################
  #
  #  FHI-aims code project
  #  VB, Fritz-Haber Institut, 2007
  #
  #  Suggested "safe" defaults for H atom (to be pasted into control.in file)
  #  Basis constructed for a non-relativistic H2 molecule using the
  #  PW-LDA functional.
  #
  ################################################################################
    species        H
  #     global species definitions
      nucleus             1
      cut_pot             4.0  2.0  1.0
      cut_free_atom       finite 8.0
      logarithmic         0.00010000 100.00  1.0123
      basis_dep_cutoff    1d-4  # 1d-4 is safe default - please check 5d-4 if you wish!
      radial_base         24 7.0
      radial_multiplier   2
      angular_grids       specified
        division   0.2783  110
        division   0.3822  194
        division   0.5626  302
  #      division   0.5922  434
  #      division   0.6227  590
  #      division   0.7206  770
        outer_grid  302
      l_hartree           4
  ################################################################################
  #
  #  Definition of "minimal" basis
  #
  ################################################################################
  #     valence basis states
      valence      1  s   1.
  #     ion occupancy
      ion_occ      1  s   0.5
  ################################################################################
  #
  #  Suggested additional basis functions. For production calculations,
  #  uncomment them one after another (the most important basis functions are
  #  listed first).
  #
  ################################################################################
  #  "First tier" - improvements: -1014.90 meV to -62.69 meV
       hydro 2 s 2.1
       hydro 2 p 3.5
  #  "Second tier" - improvements: -12.89 meV to -1.83 meV
       hydro 1 s 0.85
       hydro 2 p 3.7
       hydro 2 s 1.2
       hydro 3 d 7
  #  "Third tier" - improvements: -0.25 meV to -0.12 meV
  #     hydro 4 f 11.2
  #     hydro 3 p 4.8
  #     hydro 4 d 9
  #     hydro 3 s 3.2
  
  ################################################################################
  #
  #  FHI-aims code project
  #  VB, Fritz-Haber Institut, 2007
  #
  #  Suggested "safe" defaults for O atom (to be pasted into control.in file)
  #  All values have been tested for a non-relativistic, non-spinpolarized O2
  #  molecule using the PW-LDA functional. Validity for PBE is expected.
  #
  #  Constructed for dimers: 1.0 A, 1.208 A, 1.5 A, 2.0 A, 3.0 A
  #
  ################################################################################
    species        O
  #     global species definitions
      nucleus             8
      mass                15.9994
      l_hartree           4
      cut_pot             4.0  2.0  1.0
      cut_free_atom       finite 8.0
      basis_dep_cutoff    1d-4  # 1d-4 is safe default - please check 5d-4 if you wish!
      logarithmic         0.00010000 100.00  1.0123
      radial_base         36 7.0
      radial_multiplier   2
       angular_grids specified
        division   0.4087  110
        division   0.5181  194
        division   0.6184  302
  #      division   0.7315  434
  #      division   0.7934  590
  #      division   0.9656  770
  #      division   1.4041  974
  #      outer_grid 974
        outer_grid 302
  ################################################################################
  #
  #  Definition of "minimal" basis
  #
  ################################################################################
  #     valence basis states
      valence      2  s   2.
      valence      2  p   4.
  #     ion occupancy
      ion_occ      2  s   1.
      ion_occ      2  p   3.
  ################################################################################
  #
  #  Suggested additional basis functions. For production calculations,
  #  uncomment them one after another (the most important basis functions are
  #  listed first).
  #
  ################################################################################
  #  "First tier" - improvements: -699.05 meV to -159.38 meV
       hydro 2 p 1.8
       hydro 3 d 7.6
       hydro 3 s 6.4
  #  "Second tier" - improvements: -49.91 meV to -5.39 meV
       hydro 4 f 11.6
       hydro 3 p 6.2
       hydro 3 d 5.6
       hydro 5 g 17.6
       hydro 1 s 0.75
  #  "Third tier" - improvements: -2.83 meV to -0.50 meV
  #     ionic 2 p auto
  #     hydro 4 f 10.8
  #     hydro 4 d 4.7
  #     hydro 2 s 6.8
  #  "Fourth tier" - improvements: -0.40 meV to -0.12 meV
  #     hydro 3 p 5
  #     hydro 3 s 3.3
  #     hydro 5 g 15.6
  #     hydro 4 f 17.6
  #     hydro 4 d 14
  # Further basis functions - -0.08 meV and below
  #     hydro 3 s 2.1
  #     hydro 4 d 11.6
  #     hydro 3 p 16
  #     hydro 2 s 17.2
  
  
  -----------------------------------------------------------------------
  Completed first pass over input file control.in .
  -----------------------------------------------------------------------
  
  
  -----------------------------------------------------------------------
  Parsing geometry.in (first pass over file, find array dimensions only).
  The contents of geometry.in will be repeated verbatim below
  unless switched off by setting 'verbatim_writeout .false.' .
  in the first line of geometry.in .
  -----------------------------------------------------------------------
  
  atom      -4.053030000      0.065001000     -1.525160000  O
  atom      -4.566710000      0.974813000     -1.912820000  H
  atom      -3.067820000      0.330172000     -1.477310000  H
  atom      -4.370360000     -0.049164000     -0.572274000  H
  atom      -5.293160000      2.192130000     -2.328800000  O
  atom      -4.829300000      2.988660000     -1.973850000  H
  atom      -5.428570000      2.328640000     -3.235170000  H
  atom      -1.645860000      0.870179000     -1.502250000  O
  atom      -1.568890000      1.501730000     -0.721051000  H
  atom      -0.824432000      0.282220000     -1.377720000  H
  atom      -3.818880000      2.024990000      2.187990000  O
  atom      -3.690880000      1.961360000      3.202150000  H
  atom      -4.546490000      2.751300000      2.045370000  H
  atom      -1.975360000      2.858040000      0.453140000  O
  atom      -1.223550000      3.375850000      0.786238000  H
  atom      -2.537520000      2.567960000      1.156120000  H
  atom      -4.066610000      4.258280000     -0.900064000  O
  atom      -3.224110000      3.876870000     -0.569443000  H
  atom      -3.737450000      5.116530000     -1.322720000  H
  atom      -5.628340000      3.730740000      1.385610000  O
  atom      -6.090650000      4.418470000      1.860350000  H
  atom      -5.158540000      4.200260000      0.615875000  H
  
  -----------------------------------------------------------------------
  Completed first pass over input file geometry.in .
  -----------------------------------------------------------------------
  
 
  Basic array size parameters: 
  | Number of species                 :        2
  | Number of atoms                   :       22
  | Max. basis fn. angular momentum   :        4
  | Max. atomic/ionic basis occupied n:        2
  | Max. number of basis fn. types    :        2
  | Max. radial fns per species/type  :        8
  | Max. logarithmic grid size        :     1301
  | Max. radial integration grid size :       73
  | Max. angular integration grid size:      302
  | Max. angular grid division number :        8
  | Radial grid for Hartree potential :     1301
  | Number of spin channels           :        1

------------------------------------------------------------
          Reading file control.in.
------------------------------------------------------------
  XC: Using RPBE gradient-corrected functionals.
  Spin treatment: No spin polarisation.
  Scalar relativistic treatment of kinetic energy: on-site free-atom approximation to ZORA.
  Charge =   0.000000E+00: Neutral system requested explicitly.
  Using non-empirical van der Waals correction (Hirshfeld partitioning):
  Occupation type: Gaussian broadening, width =   0.100000E-01 eV.
  Using pulay charge density mixing.
  Pulay mixing - number of memorized iterations:   10
  Charge density mixing - mixing parameter:     0.1000
  Convergence accuracy of self-consistent charge density: 0.5000E-04
  Convergence accuracy of sum of eigenvalues: 0.5000E-02
  Convergence accuracy of total energy: 0.5000E-05
  Maximum number of s.-c. iterations  :  3000
  Kohn-Sham eigenvalues and eigenfunctions calculated by lapack diagonalisation (D&C).
  Number of empty states per atom:        8
  Threshold for basis singularities: 0.0000E+00
  Partition function in integrals calculations: rho / r^2
 Using packed matrix format           0
  Convergence accuracy of forces: 0.5000E-03
  Cleaning forces before final output.
  Hirshfeld charge analysis will be performed.
 
  Reading configuration options for species H                   .
  | Found nuclear charge :   1.0000
  | Found cutoff potl. onset [A], width [A], scale factor :    4.00000    2.00000    1.00000
  | Found cutoff specification for free atom: Cutoff potential begins at    8.00000 A.
  | Found logarithmic grid data [bohr] : 0.1000E-03 0.1000E+03 0.1012E+01
  | Threshold for basis-dependent cutoff potential is   0.100000E-03
  | Found data for basic radial integration grid :    24 points, outermost radius =    7.000 A
  | Found multiplier for basic radial grid :   2
  | Found angular grid specification: user-specified.
  | Specified grid contains     4 separate shells.
  | Check grid settings after all constraints further below.
  | Found l_max for Hartree potential  :   4
  | Found free-atom valence shell :  1 s   1.000
  | No ionic wave fns used. Skipping ion_occ.
  | Found hydrogenic basis function :  2 s   2.100
  | Found hydrogenic basis function :  2 p   3.500
  | Found hydrogenic basis function :  1 s   0.850
  | Found hydrogenic basis function :  2 p   3.700
  | Found hydrogenic basis function :  2 s   1.200
  | Found hydrogenic basis function :  3 d   7.000
  Species H                   : Missing cutoff potential type.
  Defaulting to exp(1/x)/(1-x)^2 type cutoff potential.
  Species H : On-site basis accuracy parameter (for Gram-Schmidt orthonormalisation) not specified.
  Using default value basis_acc =  0.1000000E-03.
  Species H                   : Using default innermost maximum threshold i_radial=  2 for radial functions.
  Species H                   : Basic radial grid will be enhanced according to radial_multiplier =   2, to contain    49 grid points.
 
  Reading configuration options for species O                   .
  | Found nuclear charge :   8.0000
  | Found atomic mass :    15.9994000000000      amu
  | Found l_max for Hartree potential  :   4
  | Found cutoff potl. onset [A], width [A], scale factor :    4.00000    2.00000    1.00000
  | Found cutoff specification for free atom: Cutoff potential begins at    8.00000 A.
  | Threshold for basis-dependent cutoff potential is   0.100000E-03
  | Found logarithmic grid data [bohr] : 0.1000E-03 0.1000E+03 0.1012E+01
  | Found data for basic radial integration grid :    36 points, outermost radius =    7.000 A
  | Found multiplier for basic radial grid :   2
  | Found angular grid specification: user-specified.
  | Specified grid contains     4 separate shells.
  | Check grid settings after all constraints further below.
  | Found free-atom valence shell :  2 s   2.000
  | Found free-atom valence shell :  2 p   4.000
  | No ionic wave fns used. Skipping ion_occ.
  | No ionic wave fns used. Skipping ion_occ.
  | Found hydrogenic basis function :  2 p   1.800
  | Found hydrogenic basis function :  3 d   7.600
  | Found hydrogenic basis function :  3 s   6.400
  | Found hydrogenic basis function :  4 f  11.600
  | Found hydrogenic basis function :  3 p   6.200
  | Found hydrogenic basis function :  3 d   5.600
  | Found hydrogenic basis function :  5 g  17.600
  | Found hydrogenic basis function :  1 s   0.750
  Species O                   : Missing cutoff potential type.
  Defaulting to exp(1/x)/(1-x)^2 type cutoff potential.
  Species O : On-site basis accuracy parameter (for Gram-Schmidt orthonormalisation) not specified.
  Using default value basis_acc =  0.1000000E-03.
  Species O                   : Using default innermost maximum threshold i_radial=  2 for radial functions.
  Species O                   : Basic radial grid will be enhanced according to radial_multiplier =   2, to contain    73 grid points.
 
  Finished reading input file 'control.in'. Consistency checks are next.
 
  Target number of points in a grid batch is not set. Defaulting to  100
  Method for grid partitioning is not set. Defaulting to parallel hash+maxmin partitioning.
  Batch size limit is not set. Defaulting to    200
  By default, will store active basis functions for each batch.
  If in need of memory, prune_basis_once .false. can be used to disable this option.
  communication_type for Hartree potential was not specified.
  Defaulting to calc_hartree .
  Pulay mixer: Number of initial linear mixing iterations not set.
  Defaulting to    0 iterations.
  Work space size for distributed Hartree potential not set.
  Defaulting to   0.200000E+03 MB.
  Algorithm-dependent basis array size parameters:
  | n_max_pulay                         :       10
  Geometry relaxation not requested: no relaxation will be performed.
  Handling of forces: Unphysical translation and rotation will be removed from forces.
  No accuracy limit for integral partition fn. given. Defaulting to 0.1000E-14.
  No threshold value for u(r) in integrations given. Defaulting to 0.1000E-05.
  No accuracy for occupation numbers given. Defaulting to 0.1000E-07.
  No threshold value for occupation numbers given. Defaulting to 0.0000E+00.
  No accuracy for fermi level given. Defaulting to 0.1000E-19.
  Maximum # of iterations to find E_F not set. Defaulting to  200.
  Will not use alltoall communication since running on < 1024 CPUs.
  Partitioning for Hartree potential was not defined. Using partition_type for integrals.
  | Reporting present value of keyword multip_moments_threshold  :       0.10000000E-09
  | This value may affect high angular momentum components of the Hartree potential in periodic systems.
  No q(lm)/r^(l+1) cutoff set for long-range Hartree potential.
  | Using default value of  0.100000E-09 .
  | Verify using the multipole_threshold keyword.
  Defaulting to new monopole extrapolation.
  Density update method: Loop over occupied states selected for charge density update.
------------------------------------------------------------


------------------------------------------------------------
          Reading geometry description geometry.in.
------------------------------------------------------------
  Input structure read successfully.
  The structure contains       22 atoms,  and a total of         71.000 electrons.

  Input geometry:
  | No unit cell requested.
  | Atomic structure:
  |       Atom                x [A]            y [A]            z [A]
  |    1: Species O             -4.053030         0.065001        -1.525160
  |    2: Species H             -4.566710         0.974813        -1.912820
  |    3: Species H             -3.067820         0.330172        -1.477310
  |    4: Species H             -4.370360        -0.049164        -0.572274
  |    5: Species O             -5.293160         2.192130        -2.328800
  |    6: Species H             -4.829300         2.988660        -1.973850
  |    7: Species H             -5.428570         2.328640        -3.235170
  |    8: Species O             -1.645860         0.870179        -1.502250
  |    9: Species H             -1.568890         1.501730        -0.721051
  |   10: Species H             -0.824432         0.282220        -1.377720
  |   11: Species O             -3.818880         2.024990         2.187990
  |   12: Species H             -3.690880         1.961360         3.202150
  |   13: Species H             -4.546490         2.751300         2.045370
  |   14: Species O             -1.975360         2.858040         0.453140
  |   15: Species H             -1.223550         3.375850         0.786238
  |   16: Species H             -2.537520         2.567960         1.156120
  |   17: Species O             -4.066610         4.258280        -0.900064
  |   18: Species H             -3.224110         3.876870        -0.569443
  |   19: Species H             -3.737450         5.116530        -1.322720
  |   20: Species O             -5.628340         3.730740         1.385610
  |   21: Species H             -6.090650         4.418470         1.860350
  |   22: Species H             -5.158540         4.200260         0.615875
  |

  | The smallest distance between any two atoms is         0.92654057 AA.
  |
  | The first atom of this pair is atom number                      5 .
  | The second atom of this pair is atom number                     7 .

  Structure-dependent array size parameters: 
  | Maximum number of distinct radial functions  :       18
  | Maximum number of basis functions            :      498
  | Number of Kohn-Sham states (occupied + empty):      124
------------------------------------------------------------

------------------------------------------------------------
          Preparing all fixed parts of the calculation.
------------------------------------------------------------
  Determining machine precision:
    2.225073858507201E-308
  Setting up grids for atomic and cluster calculations.

  Creating wave function, potential, and density for free atoms.

  Species: H

  List of occupied orbitals and eigenvalues:
    n    l              occ      energy [Ha]    energy [eV]
    1    0           1.0000        -0.241408        -6.5691


  Species: O

  List of occupied orbitals and eigenvalues:
    n    l              occ      energy [Ha]    energy [eV]
    1    0           2.0000       -18.944147      -515.4965
    2    0           2.0000        -0.883529       -24.0421
    2    1           4.0000        -0.330176        -8.9845

  Creating fixed part of basis set: Ionic, confined, hydrogenic.
 
  H                    hydrogenic:
 
  List of hydrogenic basis orbitals: 
    n    l      effective z      eigenvalue [eV]  inner max. [A]     outer max. [A]     outer radius [A]   
    2    0         2.100000       -14.9965           0.193241           1.317192           5.372934
    2    1         3.500000       -41.6672           0.602363           0.602363           4.056010
    1    0         0.850000        -9.8292           0.624864           0.624864           5.372934
    2    1         3.700000       -46.5653           0.573616           0.573616           3.909951
    2    0         1.200000        -4.5995           0.334977           2.228160           5.505921
    3    2         7.000000       -74.0753           0.680692           0.680692           3.769152
 
 
  O                    hydrogenic:
 
  List of hydrogenic basis orbitals: 
    n    l      effective z      eigenvalue [eV]  inner max. [A]     outer max. [A]     outer radius [A]   
    2    1         1.800000       -11.0118           1.178546           1.178546           5.432516
    3    2         7.600000       -87.3182           0.624117           0.624117           3.541422
    3    0         6.400000       -61.9209           0.061166           1.081887           4.306510
    4    3        11.600000      -114.4238           0.731621           0.731621           3.584982
    3    1         6.200000       -58.1113           0.255677           1.030255           4.306510
    3    2         5.600000       -47.4081           0.847222           0.847222           4.413102
    5    4        17.600000      -168.5799           0.749730           0.749730           3.372413
    1    0         0.750000        -7.6499           0.705275           0.705275           5.366508
 

  Adding cutoff potential to free-atom effective potential.
  Creating atomic-like basis functions for current effective potential.

  Species H                   :

  List of atomic basis orbitals and eigenvalues:
    n    l      energy [Ha]    energy [eV]    outer radius [A]
    1    0        -0.241374        -6.5681       5.372934


  Species O                   :

  List of atomic basis orbitals and eigenvalues:
    n    l      energy [Ha]    energy [eV]    outer radius [A]
    1    0       -18.944147      -515.4965       1.415745
    2    0        -0.883529       -24.0421       5.048305
    2    1        -0.330173        -8.9845       5.301302

  Assembling full basis from fixed parts.
  | Species H :   atomic orbital   1 s accepted.
  | Species H :    hydro orbital   2 s accepted.
  | Species H :    hydro orbital   1 s accepted.
  | Species H :    hydro orbital   2 s accepted.
  | Species H :    hydro orbital   2 p accepted.
  | Species H :    hydro orbital   2 p accepted.
  | Species H :    hydro orbital   3 d accepted.
  | Species O :   atomic orbital   1 s accepted.
  | Species O :    hydro orbital   3 s accepted.
  | Species O :   atomic orbital   2 s accepted.
  | Species O :    hydro orbital   1 s accepted.
  | Species O :    hydro orbital   3 p accepted.
  | Species O :   atomic orbital   2 p accepted.
  | Species O :    hydro orbital   2 p accepted.
  | Species O :    hydro orbital   3 d accepted.
  | Species O :    hydro orbital   3 d accepted.
  | Species O :    hydro orbital   4 f accepted.
  | Species O :    hydro orbital   5 g accepted.
 
  Basis size parameters after reduction:
  | Total number of radial functions:       18
  | Total number of basis functions :      498
 
  Testing on-site integration grid accuracy.
  |  Species  Function  <phi|h_atom|phi> (log., in eV)  <phi|h_atom|phi> (rad., in eV)
           1        1                 -6.5683835025                 -6.5684759159
           1        2                 13.3711789951                 13.3708738703
           1        3                 23.6590910787                 23.6532055418
           1        4                 16.2963827186                 16.1870710655 ***
           1        5                 28.7627214838                 28.7627215090
           1        6                 59.5965249172                 59.5965950857
           1        7                 60.2220506392                 60.2220503827
           2        8               -515.4964576505               -515.4964530710
           2        9                 15.3030791347                 15.3030722972
           2       10                -21.7296094581                -21.7296135470
           2       11                 14.2969371730                 14.2969701621
           2       12                 21.0679693190                 21.0679697493
           2       13                 -2.3833606469                 -2.3833613176
           2       14                 13.7067136422                 13.7066766629
           2       15                 45.8013116808                 45.8013116965
           2       16                 52.2309815402                 52.2309831494
           2       17                 85.4120732416                 85.4120732763
           2       18                142.1019167745                142.1019167817
 * Note: Onsite integrals marked "***" above are less accurate than
 * onsite_accuracy_threshold =    0.03000 eV. Usually, this is harmless.
 * When in doubt, tighten the "radial" and/or "radial_multiplier" flags to check.

  Preparing densities etc. for the partition functions (integrals / Hartree potential).

  Preparations completed.
  max(cpu_time)          :      0.170 s.
  Wall clock time (cpu1) :      0.642 s.
------------------------------------------------------------

------------------------------------------------------------
          Begin self-consistency loop: Initialization.

          Date     :  20150727, Time     :  123234.585
------------------------------------------------------------

  Initializing index lists of integration centers etc. from given atomic structure:
  | Number of centers in hartree potential         :        22
  | Number of centers in hartree multipole         :        22
  | Number of centers in electron density summation:        22
  | Number of centers in basis integrals           :        22
  | Number of centers in integrals                 :        22
  Partitioning the integration grid into batches with parallel hashing+maxmin method.
  | Number of batches:     2817
  | Maximal batch size:     188
  | Minimal batch size:      50
  | Average batch size:     101.877
  | Standard deviation of batch sizes:      29.341

  Integration load balanced across     8 MPI tasks.
  Work distribution over tasks is as follows:
  Task     0 has      35870 integration points.
  Task     1 has      35858 integration points.
  Task     2 has      35812 integration points.
  Task     3 has      35872 integration points.
  Task     4 has      35895 integration points.
  Task     5 has      35857 integration points.
  Task     6 has      35895 integration points.
  Task     7 has      35929 integration points.
  Initializing partition tables, free-atom densities, potentials, etc. across the integration grid (initialize_grid_storage).
  | Net number of integration points:   286988
  | of which are non-zero points    :   286420
  Obtaining max. number of non-zero basis functions in each batch (get_n_compute_maxes).
  | Maximal number of non-zero basis functions:      493 in task     0
  | Maximal number of non-zero basis functions:      493 in task     1
  | Maximal number of non-zero basis functions:      493 in task     2
  | Maximal number of non-zero basis functions:      493 in task     3
  | Maximal number of non-zero basis functions:      493 in task     4
  | Maximal number of non-zero basis functions:      493 in task     5
  | Maximal number of non-zero basis functions:      493 in task     6
  | Maximal number of non-zero basis functions:      492 in task     7
  Integrating Hamiltonian matrix: batch-based integration.
  Time summed over all CPUs for integration: real work       17.505 s, elapsed       17.767 s
  Integrating overlap matrix.
  Time summed over all CPUs for integration: real work        9.654 s, elapsed        9.740 s

  Updating Kohn-Sham eigenvalues, eigenvectors, occupation numbers, and Fermi level.
  Solving generalized eigenproblem
  Updating Kohn-Sham eigenvalues and eigenfunctions.
  Transforming overlap matrix and checking for singularities.
  Overlap matrix is nonsingular:
  | Lowest eigenvalue:  0.208772E-03
  Solving real generalised eigenvalue problem by standard LAPACK (fast)
  Determining occupation numbers for Kohn-Sham eigenstates.
  | Chemical potential (Fermi level) in eV                 : -.27685481E+01
  | Error in electron count due to remaining E_F inaccuracy: 0.51159077E-12
  | Maximum occupation number of highest empty state:  0.00E+00

  Writing Kohn-Sham eigenvalues.

  State    Occupation    Eigenvalue [Ha]    Eigenvalue [eV]
      1       2.00000         -19.065152         -518.78918
      2       2.00000         -19.064976         -518.78438
      3       2.00000         -19.059589         -518.63780
      4       2.00000         -19.050656         -518.39473
      5       2.00000         -19.045482         -518.25395
      6       2.00000         -19.042594         -518.17534
      7       2.00000         -19.032836         -517.90983
      8       2.00000          -1.129642          -30.73912
      9       2.00000          -1.115270          -30.34803
     10       2.00000          -1.113591          -30.30234
     11       2.00000          -1.100456          -29.94492
     12       2.00000          -1.089096          -29.63580
     13       2.00000          -1.081769          -29.43643
     14       2.00000          -1.064448          -28.96511
     15       2.00000          -0.656851          -17.87384
     16       2.00000          -0.653999          -17.79622
     17       2.00000          -0.639951          -17.41395
     18       2.00000          -0.632201          -17.20307
     19       2.00000          -0.622851          -16.94865
     20       2.00000          -0.611680          -16.64466
     21       2.00000          -0.607337          -16.52649
     22       2.00000          -0.603963          -16.43466
     23       2.00000          -0.535961          -14.58424
     24       2.00000          -0.530233          -14.42836
     25       2.00000          -0.517004          -14.06840
     26       2.00000          -0.510155          -13.88204
     27       2.00000          -0.504607          -13.73107
     28       2.00000          -0.488265          -13.28636
     29       2.00000          -0.484141          -13.17415
     30       2.00000          -0.453064          -12.32849
     31       2.00000          -0.448980          -12.21736
     32       2.00000          -0.440655          -11.99085
     33       2.00000          -0.437931          -11.91672
     34       2.00000          -0.435855          -11.86021
     35       2.00000          -0.424857          -11.56096
     36       1.00000          -0.101742           -2.76855
     37       0.00000          -0.070961           -1.93093
     38       0.00000          -0.064587           -1.75749
     39       0.00000          -0.059162           -1.60988
     40       0.00000          -0.042754           -1.16339
     41       0.00000          -0.032730           -0.89063
     42       0.00000          -0.026885           -0.73158
     43       0.00000           0.018282            0.49747
     44       0.00000           0.027034            0.73563
     45       0.00000           0.032330            0.87973
     46       0.00000           0.037019            1.00735
     47       0.00000           0.044772            1.21830
     48       0.00000           0.051340            1.39703
     49       0.00000           0.054824            1.49185
     50       0.00000           0.062611            1.70372
     51       0.00000           0.069029            1.87836
     52       0.00000           0.078828            2.14502
     53       0.00000           0.085053            2.31441
     54       0.00000           0.086366            2.35013
     55       0.00000           0.094668            2.57606
     56       0.00000           0.098860            2.69012
     57       0.00000           0.099330            2.70292
     58       0.00000           0.114024            3.10275
     59       0.00000           0.117395            3.19447
     60       0.00000           0.121183            3.29754
     61       0.00000           0.123945            3.37271
     62       0.00000           0.130257            3.54448
     63       0.00000           0.135144            3.67747
     64       0.00000           0.136019            3.70127
     65       0.00000           0.144402            3.92938
     66       0.00000           0.148992            4.05429
     67       0.00000           0.161850            4.40416
     68       0.00000           0.163531            4.44991
     69       0.00000           0.185078            5.03624
     70       0.00000           0.189617            5.15975
     71       0.00000           0.193499            5.26539
     72       0.00000           0.221761            6.03441
     73       0.00000           0.230927            6.28384
     74       0.00000           0.233388            6.35080
     75       0.00000           0.243251            6.61919
     76       0.00000           0.258866            7.04411
     77       0.00000           0.274370            7.46598
     78       0.00000           0.278910            7.58954
     79       0.00000           0.290313            7.89981
     80       0.00000           0.296870            8.07823
     81       0.00000           0.306577            8.34238
     82       0.00000           0.310833            8.45821
     83       0.00000           0.324585            8.83239
     84       0.00000           0.331172            9.01166
     85       0.00000           0.341316            9.28768
     86       0.00000           0.353567            9.62104
     87       0.00000           0.356176            9.69205
     88       0.00000           0.365526            9.94648
     89       0.00000           0.374922           10.20214
     90       0.00000           0.380777           10.36147
     91       0.00000           0.386608           10.52014
     92       0.00000           0.389145           10.58917
     93       0.00000           0.406598           11.06410
     94       0.00000           0.409634           11.14670
     95       0.00000           0.426575           11.60771
     96       0.00000           0.454971           12.38040
     97       0.00000           0.457213           12.44141
     98       0.00000           0.462068           12.57351
     99       0.00000           0.468133           12.73856
    100       0.00000           0.470115           12.79249
    101       0.00000           0.482541           13.13061
    102       0.00000           0.487853           13.27515
    103       0.00000           0.506387           13.77949
    104       0.00000           0.521700           14.19618
    105       0.00000           0.529605           14.41130
    106       0.00000           0.543014           14.77615
    107       0.00000           0.570042           15.51164
    108       0.00000           0.578672           15.74648
    109       0.00000           0.600309           16.33523
    110       0.00000           0.610572           16.61451
    111       0.00000           0.623516           16.96672
    112       0.00000           0.662418           18.02532
    113       0.00000           0.666891           18.14702
    114       0.00000           0.693004           18.85760
    115       0.00000           0.699534           19.03529
    116       0.00000           0.710287           19.32789
    117       0.00000           0.725883           19.75229
    118       0.00000           0.731283           19.89922
    119       0.00000           0.760979           20.70729
    120       0.00000           0.768675           20.91670
    121       0.00000           0.781303           21.26033
    122       0.00000           0.799644           21.75942
    123       0.00000           0.812213           22.10145
    124       0.00000           0.818719           22.27849

  Highest occupied state (VBM) at     -2.76854814 eV
  | Occupation number:      1.00000000

  Lowest unoccupied state (CBM) at    -1.93093487 eV
  | Occupation number:      0.00000000

  Overall HOMO-LUMO gap:      0.83761327 eV.
  Calculating total energy contributions from superposition of free atom densities.

  Total energy components:
  | Sum of eigenvalues            :        -304.69393936 Ha       -8291.14393880 eV
  | XC energy correction          :         -64.24301431 Ha       -1748.14136379 eV
  | XC potential correction       :          82.11968991 Ha        2234.59045712 eV
  | Free-atom electrostatic energy:        -249.95214965 Ha       -6801.54405068 eV
  | Hartree energy correction     :           0.00000000 Ha           0.00000000 eV
  | van der Waals energy corr.    :           0.00000000 Ha           0.00000000 eV
  | Entropy correction            :          -0.00010367 Ha          -0.00282095 eV
  | ---------------------------
  | Total energy                  :        -536.76941341 Ha      -14606.23889615 eV
  | Total energy, T -> 0          :        -536.76951708 Ha      -14606.24171710 eV  <-- do not rely on this value for anything but (periodic) metals
  | Electronic free energy        :        -536.76962075 Ha      -14606.24453805 eV

  Derived energy quantities:
  | Kinetic energy                :         531.67985574 Ha       14467.74498533 eV
  | Electrostatic energy          :       -1004.20625484 Ha      -27325.84251769 eV
  | Energy correction for multipole
  | error in Hartree potential    :           0.00000000 Ha           0.00000000 eV
  | Sum of eigenvalues per atom                           :        -376.87017904 eV
  | Total energy (T->0) per atom                          :        -663.92007805 eV  <-- do not rely on this value for anything but (periodic) metals
  | Electronic free energy per atom                       :        -663.92020627 eV
  Initialize hartree_potential_storage
  Max. number of atoms included in rho_multipole:           22

  End scf initialization - timings             :  max(cpu_time)    wall_clock(cpu1)
  | Time for scf. initialization               :        4.590 s           4.590 s
  | Boundary condition initialization          :        0.000 s           0.001 s
  | Integration                                :        3.445 s           3.445 s
  | Solution of K.-S. eqns.                    :        0.483 s           0.483 s
  | Grid partitioning                          :        0.230 s           0.230 s
  | Preloading free-atom quantities on grid    :        0.014 s           0.013 s
  | Free-atom superposition energy             :        0.129 s           0.129 s
  | Total energy evaluation                    :        0.000 s           0.001 s
------------------------------------------------------------

------------------------------------------------------------
          Begin self-consistency iteration #    1

  Date     :  20150727, Time     :  123239.176
------------------------------------------------------------
  Evaluating new KS density.
  Integration grid: deviation in total charge (<rho> - N_e) =   5.400125E-13
  Pulay mixing of updated and previous charge densities.

  Evaluating partitioned Hartree potential by multipole expansion.
  | Analytical far-field extrapolation by fixed multipoles:
  | Hartree multipole sum: apparent total charge =  -0.167023E-05
  Summing up the Hartree potential.
  Time summed over all CPUs for potential: real work        5.435 s, elapsed        5.465 s
  | RMS charge density error from multipole expansion :   0.196939E-02

  Integrating Hamiltonian matrix: batch-based integration.
  Time summed over all CPUs for integration: real work       17.496 s, elapsed       17.767 s

  Updating Kohn-Sham eigenvalues, eigenvectors, occupation numbers, and Fermi level.
  Solving generalized eigenproblem
  Updating Kohn-Sham eigenvalues and eigenfunctions.
  Solving real generalised eigenvalue problem by standard LAPACK (fast)
  Determining occupation numbers for Kohn-Sham eigenstates.
  | Chemical potential (Fermi level) in eV                 : -.24845577E+01
  | Error in electron count due to remaining E_F inaccuracy: 0.11937118E-11
  | Maximum occupation number of highest empty state:  0.00E+00

  Writing Kohn-Sham eigenvalues.

  State    Occupation    Eigenvalue [Ha]    Eigenvalue [eV]
      1       2.00000         -19.011097         -517.31826
      2       2.00000         -18.993361         -516.83565
      3       2.00000         -18.981513         -516.51325
      4       2.00000         -18.974211         -516.31455
      5       2.00000         -18.973693         -516.30046
      6       2.00000         -18.973292         -516.28956
      7       2.00000         -18.953961         -515.76352
      8       2.00000          -1.101066          -29.96152
      9       2.00000          -1.082579          -29.45847
     10       2.00000          -1.074165          -29.22952
     11       2.00000          -1.061509          -28.88514
     12       2.00000          -1.052066          -28.62818
     13       2.00000          -1.047351          -28.49987
     14       2.00000          -1.022584          -27.82593
     15       2.00000          -0.623439          -16.96463
     16       2.00000          -0.621730          -16.91813
     17       2.00000          -0.616682          -16.78077
     18       2.00000          -0.599398          -16.31046
     19       2.00000          -0.597880          -16.26915
     20       2.00000          -0.580170          -15.78723
     21       2.00000          -0.577021          -15.70153
     22       2.00000          -0.568276          -15.46358
     23       2.00000          -0.504347          -13.72399
     24       2.00000          -0.493654          -13.43301
     25       2.00000          -0.480505          -13.07521
     26       2.00000          -0.473927          -12.89622
     27       2.00000          -0.467891          -12.73197
     28       2.00000          -0.456019          -12.40890
     29       2.00000          -0.445644          -12.12658
     30       2.00000          -0.417681          -11.36569
     31       2.00000          -0.408913          -11.12708
     32       2.00000          -0.401688          -10.93048
     33       2.00000          -0.400231          -10.89085
     34       2.00000          -0.397719          -10.82249
     35       2.00000          -0.381783          -10.38885
     36       1.00000          -0.091306           -2.48456
     37       0.00000          -0.061897           -1.68430
     38       0.00000          -0.055230           -1.50287
     39       0.00000          -0.050816           -1.38277
     40       0.00000          -0.034273           -0.93261
     41       0.00000          -0.025308           -0.68868
     42       0.00000          -0.018616           -0.50656
     43       0.00000           0.029993            0.81615
     44       0.00000           0.036074            0.98163
     45       0.00000           0.040785            1.10983
     46       0.00000           0.045208            1.23017
     47       0.00000           0.056040            1.52494
     48       0.00000           0.060294            1.64068
     49       0.00000           0.063254            1.72123
     50       0.00000           0.072861            1.98264
     51       0.00000           0.078113            2.12556
     52       0.00000           0.087738            2.38747
     53       0.00000           0.094549            2.57280
     54       0.00000           0.096035            2.61325
     55       0.00000           0.105064            2.85893
     56       0.00000           0.108160            2.94318
     57       0.00000           0.115079            3.13147
     58       0.00000           0.125443            3.41348
     59       0.00000           0.126700            3.44769
     60       0.00000           0.133262            3.62625
     61       0.00000           0.136031            3.70160
     62       0.00000           0.140427            3.82120
     63       0.00000           0.144595            3.93464
     64       0.00000           0.147559            4.01529
     65       0.00000           0.156498            4.25854
     66       0.00000           0.167387            4.55482
     67       0.00000           0.172636            4.69766
     68       0.00000           0.175798            4.78372
     69       0.00000           0.195518            5.32031
     70       0.00000           0.199217            5.42097
     71       0.00000           0.204186            5.55618
     72       0.00000           0.231230            6.29208
     73       0.00000           0.238517            6.49037
     74       0.00000           0.241711            6.57730
     75       0.00000           0.252346            6.86667
     76       0.00000           0.267360            7.27524
     77       0.00000           0.283897            7.72522
     78       0.00000           0.287502            7.82334
     79       0.00000           0.297305            8.09009
     80       0.00000           0.306513            8.34064
     81       0.00000           0.314898            8.56880
     82       0.00000           0.319612            8.69709
     83       0.00000           0.333833            9.08407
     84       0.00000           0.338675            9.21583
     85       0.00000           0.349313            9.50528
     86       0.00000           0.362366            9.86049
     87       0.00000           0.366202            9.96486
     88       0.00000           0.374353           10.18668
     89       0.00000           0.384788           10.47061
     90       0.00000           0.390108           10.61537
     91       0.00000           0.395956           10.77452
     92       0.00000           0.398226           10.83628
     93       0.00000           0.415381           11.30310
     94       0.00000           0.418392           11.38502
     95       0.00000           0.435624           11.85394
     96       0.00000           0.464391           12.63673
     97       0.00000           0.468351           12.74449
     98       0.00000           0.471483           12.82971
     99       0.00000           0.477664           12.99790
    100       0.00000           0.479864           13.05776
    101       0.00000           0.492076           13.39006
    102       0.00000           0.498264           13.55844
    103       0.00000           0.517783           14.08959
    104       0.00000           0.534870           14.55457
    105       0.00000           0.542936           14.77403
    106       0.00000           0.554836           15.09785
    107       0.00000           0.580670           15.80084
    108       0.00000           0.588712           16.01967
    109       0.00000           0.612571           16.66891
    110       0.00000           0.622572           16.94104
    111       0.00000           0.633258           17.23183
    112       0.00000           0.674070           18.34237
    113       0.00000           0.677081           18.42432
    114       0.00000           0.705805           19.20592
    115       0.00000           0.713464           19.41436
    116       0.00000           0.723147           19.67784
    117       0.00000           0.738344           20.09136
    118       0.00000           0.744007           20.24547
    119       0.00000           0.774380           21.07195
    120       0.00000           0.781756           21.27266
    121       0.00000           0.795089           21.63547
    122       0.00000           0.810998           22.06839
    123       0.00000           0.825444           22.46149
    124       0.00000           0.829979           22.58487

  Highest occupied state (VBM) at     -2.48455771 eV
  | Occupation number:      1.00000000

  Lowest unoccupied state (CBM) at    -1.68429892 eV
  | Occupation number:      0.00000000

  Overall HOMO-LUMO gap:      0.80025878 eV.

  Total energy components:
  | Sum of eigenvalues            :        -301.72539952 Ha       -8210.36585982 eV
  | XC energy correction          :         -64.55155543 Ha       -1756.53719486 eV
  | XC potential correction       :          82.52203233 Ha        2245.53875138 eV
  | Free-atom electrostatic energy:        -249.95214965 Ha       -6801.54405068 eV
  | Hartree energy correction     :          -2.89889511 Ha         -78.88294934 eV
  | van der Waals energy corr.    :           0.00000000 Ha           0.00000000 eV
  | Entropy correction            :          -0.00010367 Ha          -0.00282095 eV
  | ---------------------------
  | Total energy                  :        -536.60596738 Ha      -14601.79130331 eV
  | Total energy, T -> 0          :        -536.60607105 Ha      -14601.79412426 eV  <-- do not rely on this value for anything but (periodic) metals
  | Electronic free energy        :        -536.60617471 Ha      -14601.79694521 eV

  Derived energy quantities:
  | Kinetic energy                :         533.54951371 Ha       14518.62096731 eV
  | Electrostatic energy          :       -1005.60392566 Ha      -27363.87507576 eV
  | Energy correction for multipole
  | error in Hartree potential    :           0.00045563 Ha           0.01239844 eV
  | Sum of eigenvalues per atom                           :        -373.19844817 eV
  | Total energy (T->0) per atom                          :        -663.71791474 eV  <-- do not rely on this value for anything but (periodic) metals
  | Electronic free energy per atom                       :        -663.71804296 eV

  Self-consistency convergence accuracy:
  | Change of charge density      : 0.7454E+00
  | Change of sum of eigenvalues  : 0.8078E+02 eV
  | Change of total energy        : 0.4448E+01 eV

  End self-consistency iteration #     1       :  max(cpu_time)    wall_clock(cpu1)
  | Time for this iteration                    :        4.468 s           4.468 s
  | Charge density update                      :        1.415 s           1.414 s
  | Density mixing                             :        0.005 s           0.005 s
  | Hartree multipole update                   :        0.007 s           0.007 s
  | Hartree multipole summation                :        0.685 s           0.685 s
  | Integration                                :        2.224 s           2.224 s
  | Solution of K.-S. eqns.                    :        0.127 s           0.127 s
  | Total energy evaluation                    :        0.000 s           0.001 s
------------------------------------------------------------

------------------------------------------------------------
          Begin self-consistency iteration #    2

  Date     :  20150727, Time     :  123243.645
------------------------------------------------------------
  Evaluating new KS density.
  Integration grid: deviation in total charge (<rho> - N_e) =   1.236344E-12
  Pulay mixing of updated and previous charge densities.

  Evaluating partitioned Hartree potential by multipole expansion.
  | Analytical far-field extrapolation by fixed multipoles:
  | Hartree multipole sum: apparent total charge =  -0.503416E-05
  Summing up the Hartree potential.
  Time summed over all CPUs for potential: real work        5.435 s, elapsed        5.469 s
  | RMS charge density error from multipole expansion :   0.807358E-02

  Integrating Hamiltonian matrix: batch-based integration.
  Time summed over all CPUs for integration: real work       17.457 s, elapsed       17.695 s

  Updating Kohn-Sham eigenvalues, eigenvectors, occupation numbers, and Fermi level.
  Solving generalized eigenproblem
  Updating Kohn-Sham eigenvalues and eigenfunctions.
  Solving real generalised eigenvalue problem by standard LAPACK (fast)
  Determining occupation numbers for Kohn-Sham eigenstates.
  | Chemical potential (Fermi level) in eV                 : -.18453699E+01
  | Error in electron count due to remaining E_F inaccuracy: 0.27684166E-09
  | Maximum occupation number of highest empty state:  0.00E+00

  Highest occupied state (VBM) at     -1.84536988 eV
  | Occupation number:      1.00000000

  Lowest unoccupied state (CBM) at    -1.11864694 eV
  | Occupation number:      0.00000000

  Overall HOMO-LUMO gap:      0.72672294 eV.

  Total energy components:
  | Sum of eigenvalues            :        -294.48531407 Ha       -8013.35311072 eV
  | XC energy correction          :         -65.34344603 Ha       -1778.08563440 eV
  | XC potential correction       :          83.55236383 Ha        2273.57549800 eV
  | Free-atom electrostatic energy:        -249.95214965 Ha       -6801.54405068 eV
  | Hartree energy correction     :         -10.19118019 Ha        -277.31612272 eV
  | van der Waals energy corr.    :           0.00000000 Ha           0.00000000 eV
  | Entropy correction            :          -0.00010367 Ha          -0.00282095 eV
  | ---------------------------
  | Total energy                  :        -536.41972611 Ha      -14596.72342052 eV
  | Total energy, T -> 0          :        -536.41982978 Ha      -14596.72624146 eV  <-- do not rely on this value for anything but (periodic) metals
  | Electronic free energy        :        -536.41993344 Ha      -14596.72906241 eV

  Derived energy quantities:
  | Kinetic energy                :         537.51562849 Ha       14626.54444161 eV
  | Electrostatic energy          :       -1008.59190857 Ha      -27445.18222773 eV
  | Energy correction for multipole
  | error in Hartree potential    :           0.00043355 Ha           0.01179736 eV
  | Sum of eigenvalues per atom                           :        -364.24332321 eV
  | Total energy (T->0) per atom                          :        -663.48755643 eV  <-- do not rely on this value for anything but (periodic) metals
  | Electronic free energy per atom                       :        -663.48768466 eV

  Self-consistency convergence accuracy:
  | Change of charge density      : 0.5670E+00
  | Change of sum of eigenvalues  : 0.1970E+03 eV
  | Change of total energy        : 0.5068E+01 eV

  End self-consistency iteration #     2       :  max(cpu_time)    wall_clock(cpu1)
  | Time for this iteration                    :        4.454 s           4.453 s
  | Charge density update                      :        1.411 s           1.410 s
  | Density mixing                             :        0.008 s           0.008 s
  | Hartree multipole update                   :        0.006 s           0.007 s
  | Hartree multipole summation                :        0.684 s           0.684 s
  | Integration                                :        2.216 s           2.214 s
  | Solution of K.-S. eqns.                    :        0.126 s           0.126 s
  | Total energy evaluation                    :        0.001 s           0.000 s
------------------------------------------------------------

------------------------------------------------------------
          Begin self-consistency iteration #    3

  Date     :  20150727, Time     :  123248.098
------------------------------------------------------------
  Evaluating new KS density.
  Integration grid: deviation in total charge (<rho> - N_e) =   2.768701E-10
  Pulay mixing of updated and previous charge densities.

  Evaluating partitioned Hartree potential by multipole expansion.
  | Analytical far-field extrapolation by fixed multipoles:
  | Hartree multipole sum: apparent total charge =  -0.431233E-05
  Summing up the Hartree potential.
  Time summed over all CPUs for potential: real work        5.435 s, elapsed        5.469 s
  | RMS charge density error from multipole expansion :   0.168163E-01

  Integrating Hamiltonian matrix: batch-based integration.
  Time summed over all CPUs for integration: real work       17.460 s, elapsed       17.680 s

  Updating Kohn-Sham eigenvalues, eigenvectors, occupation numbers, and Fermi level.
  Solving generalized eigenproblem
  Updating Kohn-Sham eigenvalues and eigenfunctions.
  Solving real generalised eigenvalue problem by standard LAPACK (fast)
  Determining occupation numbers for Kohn-Sham eigenstates.
  | Chemical potential (Fermi level) in eV                 : -.17707913E+01
  | Error in electron count due to remaining E_F inaccuracy: 0.00000000E+00
  | Maximum occupation number of highest empty state:  0.00E+00

  Highest occupied state (VBM) at     -1.77079128 eV
  | Occupation number:      1.00000000

  Lowest unoccupied state (CBM) at    -1.77079128 eV
  | Occupation number:      1.00000000

  Overall HOMO-LUMO gap:      0.00000000 eV.

  Total energy components:
  | Sum of eigenvalues            :        -294.80146619 Ha       -8021.95604757 eV
  | XC energy correction          :         -65.36371028 Ha       -1778.63705282 eV
  | XC potential correction       :          83.56574449 Ha        2273.93960434 eV
  | Free-atom electrostatic energy:        -249.95214965 Ha       -6801.54405068 eV
  | Hartree energy correction     :          -9.86617076 Ha        -268.47216623 eV
  | van der Waals energy corr.    :           0.00000000 Ha           0.00000000 eV
  | Entropy correction            :          -0.00010367 Ha          -0.00282095 eV
  | ---------------------------
  | Total energy                  :        -536.41775239 Ha      -14596.66971296 eV
  | Total energy, T -> 0          :        -536.41785606 Ha      -14596.67253390 eV  <-- do not rely on this value for anything but (periodic) metals
  | Electronic free energy        :        -536.41795973 Ha      -14596.67535485 eV

  Derived energy quantities:
  | Kinetic energy                :         535.01587704 Ha       14558.52274365 eV
  | Electrostatic energy          :       -1006.06991915 Ha      -27376.55540379 eV
  | Energy correction for multipole
  | error in Hartree potential    :          -0.00686867 Ha          -0.18690595 eV
  | Sum of eigenvalues per atom                           :        -364.63436580 eV
  | Total energy (T->0) per atom                          :        -663.48511518 eV  <-- do not rely on this value for anything but (periodic) metals
  | Electronic free energy per atom                       :        -663.48524340 eV

  Self-consistency convergence accuracy:
  | Change of charge density      : 0.2707E+00
  | Change of sum of eigenvalues  : -.8603E+01 eV
  | Change of total energy        : 0.5371E-01 eV

  End self-consistency iteration #     3       :  max(cpu_time)    wall_clock(cpu1)
  | Time for this iteration                    :        4.450 s           4.450 s
  | Charge density update                      :        1.407 s           1.406 s
  | Density mixing                             :        0.010 s           0.011 s
  | Hartree multipole update                   :        0.007 s           0.007 s
  | Hartree multipole summation                :        0.685 s           0.684 s
  | Integration                                :        2.213 s           2.213 s
  | Solution of K.-S. eqns.                    :        0.127 s           0.128 s
  | Total energy evaluation                    :        0.000 s           0.001 s
------------------------------------------------------------

------------------------------------------------------------
          Begin self-consistency iteration #    4

  Date     :  20150727, Time     :  123252.549
------------------------------------------------------------
  Evaluating new KS density.
  Integration grid: deviation in total charge (<rho> - N_e) =   1.421085E-14
  Pulay mixing of updated and previous charge densities.

  Evaluating partitioned Hartree potential by multipole expansion.
  | Analytical far-field extrapolation by fixed multipoles:
  | Hartree multipole sum: apparent total charge =  -0.513640E-05
  Summing up the Hartree potential.
  Time summed over all CPUs for potential: real work        5.435 s, elapsed        5.468 s
  | RMS charge density error from multipole expansion :   0.204233E-01

  Integrating Hamiltonian matrix: batch-based integration.
  Time summed over all CPUs for integration: real work       17.457 s, elapsed       17.698 s

  Updating Kohn-Sham eigenvalues, eigenvectors, occupation numbers, and Fermi level.
  Solving generalized eigenproblem
  Updating Kohn-Sham eigenvalues and eigenfunctions.
  Solving real generalised eigenvalue problem by standard LAPACK (fast)
  Determining occupation numbers for Kohn-Sham eigenstates.
  | Chemical potential (Fermi level) in eV                 : -.16407998E+01
  | Error in electron count due to remaining E_F inaccuracy: 0.00000000E+00
  | Maximum occupation number of highest empty state:  0.00E+00

  Highest occupied state (VBM) at     -1.64079978 eV
  | Occupation number:      1.00000000

  Lowest unoccupied state (CBM) at    -1.64079978 eV
  | Occupation number:      1.00000000

  Overall HOMO-LUMO gap:      0.00000000 eV.

  Total energy components:
  | Sum of eigenvalues            :        -293.40348389 Ha       -7983.91501374 eV
  | XC energy correction          :         -65.54846735 Ha       -1783.66454846 eV
  | XC potential correction       :          83.80282453 Ha        2280.39088060 eV
  | Free-atom electrostatic energy:        -249.95214965 Ha       -6801.54405068 eV
  | Hartree energy correction     :         -11.31079429 Ha        -307.78237233 eV
  | van der Waals energy corr.    :           0.00000000 Ha           0.00000000 eV
  | Entropy correction            :          -0.00010367 Ha          -0.00282095 eV
  | ---------------------------
  | Total energy                  :        -536.41207064 Ha      -14596.51510461 eV
  | Total energy, T -> 0          :        -536.41217431 Ha      -14596.51792556 eV  <-- do not rely on this value for anything but (periodic) metals
  | Electronic free energy        :        -536.41227798 Ha      -14596.52074650 eV

  Derived energy quantities:
  | Kinetic energy                :         535.13509951 Ha       14561.76695212 eV
  | Electrostatic energy          :       -1005.99870280 Ha      -27374.61750827 eV
  | Energy correction for multipole
  | error in Hartree potential    :          -0.00897601 Ha          -0.24424969 eV
  | Sum of eigenvalues per atom                           :        -362.90522790 eV
  | Total energy (T->0) per atom                          :        -663.47808753 eV  <-- do not rely on this value for anything but (periodic) metals
  | Electronic free energy per atom                       :        -663.47821575 eV

  Self-consistency convergence accuracy:
  | Change of charge density      : 0.1129E+00
  | Change of sum of eigenvalues  : 0.3804E+02 eV
  | Change of total energy        : 0.1546E+00 eV

  End self-consistency iteration #     4       :  max(cpu_time)    wall_clock(cpu1)
  | Time for this iteration                    :        4.453 s           4.452 s
  | Charge density update                      :        1.405 s           1.404 s
  | Density mixing                             :        0.012 s           0.012 s
  | Hartree multipole update                   :        0.007 s           0.007 s
  | Hartree multipole summation                :        0.685 s           0.685 s
  | Integration                                :        2.216 s           2.215 s
  | Solution of K.-S. eqns.                    :        0.127 s           0.128 s
  | Total energy evaluation                    :        0.000 s           0.001 s
------------------------------------------------------------

------------------------------------------------------------
          Begin self-consistency iteration #    5

  Date     :  20150727, Time     :  123257.002
------------------------------------------------------------
  Evaluating new KS density.
  Integration grid: deviation in total charge (<rho> - N_e) =   2.842171E-14
  Pulay mixing of updated and previous charge densities.

  Evaluating partitioned Hartree potential by multipole expansion.
  | Analytical far-field extrapolation by fixed multipoles:
  | Hartree multipole sum: apparent total charge =  -0.547617E-05
  Summing up the Hartree potential.
  Time summed over all CPUs for potential: real work        5.434 s, elapsed        5.468 s
  | RMS charge density error from multipole expansion :   0.210280E-01

  Integrating Hamiltonian matrix: batch-based integration.
  Time summed over all CPUs for integration: real work       17.466 s, elapsed       17.740 s

  Updating Kohn-Sham eigenvalues, eigenvectors, occupation numbers, and Fermi level.
  Solving generalized eigenproblem
  Updating Kohn-Sham eigenvalues and eigenfunctions.
  Solving real generalised eigenvalue problem by standard LAPACK (fast)
  Determining occupation numbers for Kohn-Sham eigenstates.
  | Chemical potential (Fermi level) in eV                 : -.16313051E+01
  | Error in electron count due to remaining E_F inaccuracy: 0.56843419E-13
  | Maximum occupation number of highest empty state:  0.00E+00

  Highest occupied state (VBM) at     -1.63130508 eV
  | Occupation number:      1.00000000

  Lowest unoccupied state (CBM) at    -0.92764109 eV
  | Occupation number:      0.00000000

  Overall HOMO-LUMO gap:      0.70366399 eV.

  Total energy components:
  | Sum of eigenvalues            :        -293.29732084 Ha       -7981.02617017 eV
  | XC energy correction          :         -65.56283782 Ha       -1784.05558892 eV
  | XC potential correction       :          83.82062438 Ha        2280.87523897 eV
  | Free-atom electrostatic energy:        -249.95214965 Ha       -6801.54405068 eV
  | Hartree energy correction     :         -11.42002791 Ha        -310.75477034 eV
  | van der Waals energy corr.    :           0.00000000 Ha           0.00000000 eV
  | Entropy correction            :          -0.00010367 Ha          -0.00282095 eV
  | ---------------------------
  | Total energy                  :        -536.41171184 Ha      -14596.50534114 eV
  | Total energy, T -> 0          :        -536.41181551 Ha      -14596.50816209 eV  <-- do not rely on this value for anything but (periodic) metals
  | Electronic free energy        :        -536.41191917 Ha      -14596.51098304 eV

  Derived energy quantities:
  | Kinetic energy                :         535.14393020 Ha       14562.00724754 eV
  | Electrostatic energy          :       -1005.99280422 Ha      -27374.45699976 eV
  | Energy correction for multipole
  | error in Hartree potential    :          -0.00972766 Ha          -0.26470310 eV
  | Sum of eigenvalues per atom                           :        -362.77391683 eV
  | Total energy (T->0) per atom                          :        -663.47764373 eV  <-- do not rely on this value for anything but (periodic) metals
  | Electronic free energy per atom                       :        -663.47777196 eV

  Self-consistency convergence accuracy:
  | Change of charge density      : 0.2923E-01
  | Change of sum of eigenvalues  : 0.2889E+01 eV
  | Change of total energy        : 0.9763E-02 eV

  End self-consistency iteration #     5       :  max(cpu_time)    wall_clock(cpu1)
  | Time for this iteration                    :        4.458 s           4.458 s
  | Charge density update                      :        1.404 s           1.403 s
  | Density mixing                             :        0.014 s           0.015 s
  | Hartree multipole update                   :        0.007 s           0.007 s
  | Hartree multipole summation                :        0.685 s           0.684 s
  | Integration                                :        2.221 s           2.221 s
  | Solution of K.-S. eqns.                    :        0.126 s           0.126 s
  | Total energy evaluation                    :        0.000 s           0.001 s
------------------------------------------------------------

------------------------------------------------------------
          Begin self-consistency iteration #    6

  Date     :  20150727, Time     :  123301.460
------------------------------------------------------------
  Evaluating new KS density.
  Integration grid: deviation in total charge (<rho> - N_e) =   8.526513E-14
  Pulay mixing of updated and previous charge densities.

  Evaluating partitioned Hartree potential by multipole expansion.
  | Analytical far-field extrapolation by fixed multipoles:
  | Hartree multipole sum: apparent total charge =  -0.558342E-05
  Summing up the Hartree potential.
  Time summed over all CPUs for potential: real work        5.434 s, elapsed        5.467 s
  | RMS charge density error from multipole expansion :   0.213495E-01

  Integrating Hamiltonian matrix: batch-based integration.
  Time summed over all CPUs for integration: real work       17.471 s, elapsed       17.718 s

  Updating Kohn-Sham eigenvalues, eigenvectors, occupation numbers, and Fermi level.
  Solving generalized eigenproblem
  Updating Kohn-Sham eigenvalues and eigenfunctions.
  Solving real generalised eigenvalue problem by standard LAPACK (fast)
  Determining occupation numbers for Kohn-Sham eigenstates.
  | Chemical potential (Fermi level) in eV                 : -.16341400E+01
  | Error in electron count due to remaining E_F inaccuracy: 0.42632564E-13
  | Maximum occupation number of highest empty state:  0.00E+00

  Highest occupied state (VBM) at     -1.63414002 eV
  | Occupation number:      1.00000000

  Lowest unoccupied state (CBM) at    -0.93079032 eV
  | Occupation number:      0.00000000

  Overall HOMO-LUMO gap:      0.70334970 eV.

  Total energy components:
  | Sum of eigenvalues            :        -293.31641236 Ha       -7981.54567680 eV
  | XC energy correction          :         -65.56458622 Ha       -1784.10316521 eV
  | XC potential correction       :          83.82237262 Ha        2280.92281117 eV
  | Free-atom electrostatic energy:        -249.95214965 Ha       -6801.54405068 eV
  | Hartree energy correction     :         -11.40096971 Ha        -310.23617047 eV
  | van der Waals energy corr.    :           0.00000000 Ha           0.00000000 eV
  | Entropy correction            :          -0.00010367 Ha          -0.00282095 eV
  | ---------------------------
  | Total energy                  :        -536.41174531 Ha      -14596.50625199 eV
  | Total energy, T -> 0          :        -536.41184898 Ha      -14596.50907293 eV  <-- do not rely on this value for anything but (periodic) metals
  | Electronic free energy        :        -536.41195265 Ha      -14596.51189388 eV

  Derived energy quantities:
  | Kinetic energy                :         535.09791563 Ha       14560.75512734 eV
  | Electrostatic energy          :       -1005.94507472 Ha      -27373.15821412 eV
  | Energy correction for multipole
  | error in Hartree potential    :          -0.01013463 Ha          -0.27577735 eV
  | Sum of eigenvalues per atom                           :        -362.79753076 eV
  | Total energy (T->0) per atom                          :        -663.47768513 eV  <-- do not rely on this value for anything but (periodic) metals
  | Electronic free energy per atom                       :        -663.47781336 eV

  Self-consistency convergence accuracy:
  | Change of charge density      : 0.9294E-02
  | Change of sum of eigenvalues  : -.5195E+00 eV
  | Change of total energy        : -.9108E-03 eV

  End self-consistency iteration #     6       :  max(cpu_time)    wall_clock(cpu1)
  | Time for this iteration                    :        4.462 s           4.462 s
  | Charge density update                      :        1.409 s           1.409 s
  | Density mixing                             :        0.016 s           0.016 s
  | Hartree multipole update                   :        0.007 s           0.007 s
  | Hartree multipole summation                :        0.684 s           0.684 s
  | Integration                                :        2.218 s           2.218 s
  | Solution of K.-S. eqns.                    :        0.126 s           0.127 s
  | Total energy evaluation                    :        0.000 s           0.001 s
------------------------------------------------------------

------------------------------------------------------------
          Begin self-consistency iteration #    7

  Date     :  20150727, Time     :  123305.923
------------------------------------------------------------
  Evaluating new KS density.
  Integration grid: deviation in total charge (<rho> - N_e) =   7.105427E-14
  Pulay mixing of updated and previous charge densities.

  Evaluating partitioned Hartree potential by multipole expansion.
  | Analytical far-field extrapolation by fixed multipoles:
  | Hartree multipole sum: apparent total charge =  -0.571032E-05
  Summing up the Hartree potential.
  Time summed over all CPUs for potential: real work        5.434 s, elapsed        5.468 s
  | RMS charge density error from multipole expansion :   0.213780E-01

  Integrating Hamiltonian matrix: batch-based integration.
  Time summed over all CPUs for integration: real work       17.461 s, elapsed       17.701 s

  Updating Kohn-Sham eigenvalues, eigenvectors, occupation numbers, and Fermi level.
  Solving generalized eigenproblem
  Updating Kohn-Sham eigenvalues and eigenfunctions.
  Solving real generalised eigenvalue problem by standard LAPACK (fast)
  Determining occupation numbers for Kohn-Sham eigenstates.
  | Chemical potential (Fermi level) in eV                 : -.16467245E+01
  | Error in electron count due to remaining E_F inaccuracy: -.42632564E-13
  | Maximum occupation number of highest empty state:  0.00E+00

  Highest occupied state (VBM) at     -6.75183641 eV
  | Occupation number:      2.00000000

  Lowest unoccupied state (CBM) at    -1.64672454 eV
  | Occupation number:      1.00000000

  Overall HOMO-LUMO gap:      5.10511187 eV.

  Total energy components:
  | Sum of eigenvalues            :        -293.38488786 Ha       -7983.40899017 eV
  | XC energy correction          :         -65.55934306 Ha       -1783.96049147 eV
  | XC potential correction       :          83.81526494 Ha        2280.72940136 eV
  | Free-atom electrostatic energy:        -249.95214965 Ha       -6801.54405068 eV
  | Hartree energy correction     :         -11.33060259 Ha        -308.32138383 eV
  | van der Waals energy corr.    :           0.00000000 Ha           0.00000000 eV
  | Entropy correction            :          -0.00010367 Ha          -0.00282095 eV
  | ---------------------------
  | Total energy                  :        -536.41171822 Ha      -14596.50551479 eV
  | Total energy, T -> 0          :        -536.41182189 Ha      -14596.50833573 eV  <-- do not rely on this value for anything but (periodic) metals
  | Electronic free energy        :        -536.41192556 Ha      -14596.51115668 eV

  Derived energy quantities:
  | Kinetic energy                :         535.13751747 Ha       14561.83274825 eV
  | Electrostatic energy          :       -1005.98989263 Ha      -27374.37777156 eV
  | Energy correction for multipole
  | error in Hartree potential    :          -0.01043637 Ha          -0.28398794 eV
  | Sum of eigenvalues per atom                           :        -362.88222683 eV
  | Total energy (T->0) per atom                          :        -663.47765162 eV  <-- do not rely on this value for anything but (periodic) metals
  | Electronic free energy per atom                       :        -663.47777985 eV

  Self-consistency convergence accuracy:
  | Change of charge density      : 0.7199E-02
  | Change of sum of eigenvalues  : -.1863E+01 eV
  | Change of total energy        : 0.7372E-03 eV

  End self-consistency iteration #     7       :  max(cpu_time)    wall_clock(cpu1)
  | Time for this iteration                    :        4.459 s           4.459 s
  | Charge density update                      :        1.406 s           1.405 s
  | Density mixing                             :        0.018 s           0.019 s
  | Hartree multipole update                   :        0.007 s           0.007 s
  | Hartree multipole summation                :        0.684 s           0.684 s
  | Integration                                :        2.217 s           2.216 s
  | Solution of K.-S. eqns.                    :        0.126 s           0.127 s
  | Total energy evaluation                    :        0.000 s           0.001 s
------------------------------------------------------------

------------------------------------------------------------
          Begin self-consistency iteration #    8

  Date     :  20150727, Time     :  123310.383
------------------------------------------------------------
  Evaluating new KS density.
  Integration grid: deviation in total charge (<rho> - N_e) =  -9.947598E-14
  Pulay mixing of updated and previous charge densities.

  Evaluating partitioned Hartree potential by multipole expansion.
  | Analytical far-field extrapolation by fixed multipoles:
  | Hartree multipole sum: apparent total charge =  -0.579822E-05
  Summing up the Hartree potential.
  Time summed over all CPUs for potential: real work        5.434 s, elapsed        5.467 s
  | RMS charge density error from multipole expansion :   0.214097E-01

  Integrating Hamiltonian matrix: batch-based integration.
  Time summed over all CPUs for integration: real work       17.453 s, elapsed       17.718 s

  Updating Kohn-Sham eigenvalues, eigenvectors, occupation numbers, and Fermi level.
  Solving generalized eigenproblem
  Updating Kohn-Sham eigenvalues and eigenfunctions.
  Solving real generalised eigenvalue problem by standard LAPACK (fast)
  Determining occupation numbers for Kohn-Sham eigenstates.
  | Chemical potential (Fermi level) in eV                 : -.16558267E+01
  | Error in electron count due to remaining E_F inaccuracy: 0.43911541E-08
  | Maximum occupation number of highest empty state:  0.00E+00

  Highest occupied state (VBM) at     -1.65582674 eV
[...]
  | Total energy corrected        :         -0.145966915564095E+05 eV  <-- do not rely on this value for anything but (periodic) metals
  | Electronic free energy        :         -0.145966943773575E+05 eV
  Total atomic forces (unitary forces cleaned) [eV/Ang]:
  |   1         -0.150905602697117E+01          0.577584783442622E+00          0.241438966505889E+00
  |   2          0.443518994309313E-01         -0.453446966147526E+00          0.142920360565276E+00
  |   3          0.995314929604770E+00          0.171952077229116E-01          0.424936686474020E-01
  |   4          0.193847330148932E+00          0.487598240918783E-01         -0.546557148677684E+00
  |   5          0.414501804530234E+00         -0.950985159342080E+00          0.266271578296256E+01
  |   6          0.888506803641578E-01          0.332067871543231E+00          0.194463195071413E+00
  |   7         -0.338421189851038E+00          0.347235536347170E+00         -0.271255107354552E+01
  |   8          0.156788892113956E+01         -0.461368984089788E+00          0.756623339229099E+00
  |   9         -0.229343983912213E+00         -0.481395132805134E-01         -0.419918870985113E+00
  |  10         -0.130259266581408E+01          0.653889432909060E+00         -0.324900247674118E+00
  |  11         -0.403686289800398E+00          0.445513267484253E+00          0.196637784001532E+01
  |  12         -0.261814385754914E+00          0.169460307710531E+00         -0.203613253823092E+01
  |  13          0.776032833168615E+00         -0.966161040021023E+00          0.256270572142960E+00
  |  14          0.151603741286854E+01          0.650178782132143E+00         -0.256471029344420E+01
  |  15         -0.413752656596597E-01          0.345395550863839E-02          0.337271956119655E+00
  |  16         -0.124740731392563E+01         -0.675894936226362E+00          0.218199268023846E+01
  |  17          0.337978265919318E+00          0.134753098789902E+01         -0.806692817380983E+00
  |  18          0.324763621667296E+00         -0.386439853575863E+00          0.329599182652432E+00
  |  19         -0.608911167162936E+00         -0.898957642442389E+00          0.394232441075961E+00
  |  20          0.648074710732977E+00          0.227841327450411E+00         -0.137374179532096E+01
  |  21         -0.415269438444395E+00          0.622956506943010E+00          0.495662237103026E+00
  |  22         -0.549764682278904E+00         -0.602273696059336E+00          0.783142562930052E+00
 
  ------------------------------------ 
  Start decomposition of the XC Energy 
  ------------------------------------ 
  Hartree-Fock part   :          0.000000000 Ha              0.000000000 eV
  ------------------------------------ 
  X Energy            :        -63.229120384 Ha          -1720.551906357 eV
  C Energy GGA        :         -2.327059279 Ha            -63.322504804 eV
  Total XC Energy     :        -65.556179663 Ha          -1783.874411162 eV
  LDA X and C from self-consistent density 
  X Energy LDA        :        -57.029080468 Ha          -1551.840236298 eV
  C Energy LDA        :         -4.664578564 Ha           -126.929640838 eV
  ------------------------------------ 
  End decomposition of the XC Energy 
  ------------------------------------ 
  Performing Hirshfeld analysis of fragment charges and moments.
  ----------------------------------------------------------------------
  | Atom     1: O
  |   Hirshfeld charge        :     -0.13080302
  |   Free atom volume        :     23.95238533
  |   Hirshfeld volume        :     21.53641248
  |   Hirshfeld dipole vector :      0.00806580       0.03636919       0.01766715
  |   Hirshfeld dipole moment :      0.04122989
  |   Hirshfeld second moments:      0.07709956      -0.00715111      -0.01068703
  |                                 -0.00715111       0.04178485      -0.02299583
  |                                 -0.01068703      -0.02299583       0.07523439
  ----------------------------------------------------------------------
  | Atom     2: H
  |   Hirshfeld charge        :      0.11837999
  |   Free atom volume        :     10.44207651
  |   Hirshfeld volume        :      9.16937307
  |   Hirshfeld dipole vector :      0.00048940       0.01629820      -0.00161099
  |   Hirshfeld dipole moment :      0.01638493
  |   Hirshfeld second moments:      0.05504532       0.02021499      -0.00342976
  |                                  0.02021499       0.03346591       0.01383751
  |                                 -0.00342976       0.01383751       0.07199037
  ----------------------------------------------------------------------
  | Atom     3: H
  |   Hirshfeld charge        :      0.10360350
  |   Free atom volume        :     10.44207651
  |   Hirshfeld volume        :      9.48541833
  |   Hirshfeld dipole vector :      0.01284390       0.01343797       0.00434008
  |   Hirshfeld dipole moment :      0.01908877
  |   Hirshfeld second moments:      0.02170389      -0.01703963      -0.00198077
  |                                 -0.01703963       0.05669029       0.00520795
  |                                 -0.00198077       0.00520795       0.06242407
  ----------------------------------------------------------------------
  | Atom     4: H
  |   Hirshfeld charge        :      0.13862377
  |   Free atom volume        :     10.44207651
  |   Hirshfeld volume        :     10.57855977
  |   Hirshfeld dipole vector :     -0.01637119       0.01203256       0.04594666
  |   Hirshfeld dipole moment :      0.05023837
  |   Hirshfeld second moments:      0.05112631      -0.00091077       0.00829735
  |                                 -0.00091077       0.04692705       0.01115024
  |                                  0.00829735       0.01115024       0.01650703
  ----------------------------------------------------------------------
  | Atom     5: O
  |   Hirshfeld charge        :     -0.21365301
  |   Free atom volume        :     23.95238533
  |   Hirshfeld volume        :     21.82187811
  |   Hirshfeld dipole vector :      0.03366846       0.00392751      -0.01365050
  |   Hirshfeld dipole moment :      0.03654213
  |   Hirshfeld second moments:      0.00802735      -0.00157180       0.03218313
  |                                 -0.00157180       0.05908857       0.00516175
  |                                  0.03218313       0.00516175       0.07029073
  ----------------------------------------------------------------------
  | Atom     6: H
  |   Hirshfeld charge        :      0.10310788
  |   Free atom volume        :     10.44207651
  |   Hirshfeld volume        :      9.44292772
  |   Hirshfeld dipole vector :      0.02170473       0.02633243       0.01827252
  |   Hirshfeld dipole moment :      0.03870888
  |   Hirshfeld second moments:      0.04305237      -0.01859448       0.00412400
  |                                 -0.01859448       0.03864233      -0.01187482
  |                                  0.00412400      -0.01187482       0.06360790
  ----------------------------------------------------------------------
  | Atom     7: H
  |   Hirshfeld charge        :      0.11964014
  |   Free atom volume        :     10.44207651
  |   Hirshfeld volume        :     10.64120895
  |   Hirshfeld dipole vector :     -0.01027857       0.00402627      -0.06768553
  |   Hirshfeld dipole moment :      0.06857981
  |   Hirshfeld second moments:      0.03696066      -0.00075012       0.01073600
  |                                 -0.00075012       0.05360017       0.00994958
  |                                  0.01073600       0.00994958       0.02994875
  ----------------------------------------------------------------------
  | Atom     8: O
  |   Hirshfeld charge        :     -0.23758513
  |   Free atom volume        :     23.95238533
  |   Hirshfeld volume        :     22.67074588
  |   Hirshfeld dipole vector :     -0.01324135      -0.01750518       0.03864103
  |   Hirshfeld dipole moment :      0.04443978
  |   Hirshfeld second moments:      0.04910539      -0.01920288       0.00787468
  |                                 -0.01920288       0.02400283       0.03783798
  |                                  0.00787468       0.03783798      -0.01389552
  ----------------------------------------------------------------------
  | Atom     9: H
  |   Hirshfeld charge        :      0.09016041
  |   Free atom volume        :     10.44207651
  |   Hirshfeld volume        :      9.85293351
  |   Hirshfeld dipole vector :     -0.00142711       0.02215934       0.03655527
  |   Hirshfeld dipole moment :      0.04277103
  |   Hirshfeld second moments:      0.06356447      -0.00426533       0.00301322
  |                                 -0.00426533       0.03437989      -0.00576877
  |                                  0.00301322      -0.00576877       0.01882205
  ----------------------------------------------------------------------
  | Atom    10: H
  |   Hirshfeld charge        :      0.10492755
  |   Free atom volume        :     10.44207651
  |   Hirshfeld volume        :     11.51079438
  |   Hirshfeld dipole vector :      0.04743581      -0.03533714       0.00737987
  |   Hirshfeld dipole moment :      0.05960984
  |   Hirshfeld second moments:      0.02087493       0.00431857      -0.00019224
  |                                  0.00431857       0.01841542       0.02128901
  |                                 -0.00019224       0.02128901       0.02193017
  ----------------------------------------------------------------------
  | Atom    11: O
  |   Hirshfeld charge        :     -0.28694191
  |   Free atom volume        :     23.95238533
  |   Hirshfeld volume        :     22.95204496
  |   Hirshfeld dipole vector :      0.00644459       0.05509315       0.01097131
  |   Hirshfeld dipole moment :      0.05654342
  |   Hirshfeld second moments:      0.00198089      -0.02636387       0.00002006
  |                                 -0.02636387      -0.04392358      -0.02664080
  |                                  0.00002006      -0.02664080       0.04521026
  ----------------------------------------------------------------------
  | Atom    12: H
  |   Hirshfeld charge        :      0.10828193
  |   Free atom volume        :     10.44207651
  |   Hirshfeld volume        :      9.77718893
  |   Hirshfeld dipole vector :      0.01118566      -0.00125545       0.08807951
  |   Hirshfeld dipole moment :      0.08879580
  |   Hirshfeld second moments:      0.05724403      -0.01575991      -0.00493867
  |                                 -0.01575991       0.04116455      -0.01314437
  |                                 -0.00493867      -0.01314437       0.05068837
  ----------------------------------------------------------------------
  | Atom    13: H
  |   Hirshfeld charge        :      0.07659141
  |   Free atom volume        :     10.44207651
  |   Hirshfeld volume        :      9.29095295
  |   Hirshfeld dipole vector :     -0.01951021       0.03105975      -0.00020999
  |   Hirshfeld dipole moment :      0.03667970
  |   Hirshfeld second moments:      0.03457918       0.01076242      -0.01763713
  |                                  0.01076242       0.02070100       0.00418021
  |                                 -0.01763713       0.00418021       0.07535043
  ----------------------------------------------------------------------
  | Atom    14: O
  |   Hirshfeld charge        :     -0.23506866
  |   Free atom volume        :     23.95238533
  |   Hirshfeld volume        :     21.64555465
  |   Hirshfeld dipole vector :     -0.01150501      -0.00145190       0.01249496
  |   Hirshfeld dipole moment :      0.01704691
  |   Hirshfeld second moments:      0.06019796       0.01975441       0.00275561
  |                                  0.01975441       0.03605805       0.00778035
  |                                  0.00275561       0.00778035       0.04257298
  ----------------------------------------------------------------------
  | Atom    15: H
  |   Hirshfeld charge        :      0.10697048
  |   Free atom volume        :     10.44207651
  |   Hirshfeld volume        :     11.12451845
  |   Hirshfeld dipole vector :      0.04284911       0.02996230       0.02080267
  |   Hirshfeld dipole moment :      0.05627199
  |   Hirshfeld second moments:      0.02512149      -0.00258854      -0.00710118
  |                                 -0.00258854       0.01721638       0.00028075
  |                                 -0.00710118       0.00028075       0.04244154
  ----------------------------------------------------------------------
  | Atom    16: H
  |   Hirshfeld charge        :      0.08450851
  |   Free atom volume        :     10.44207651
  |   Hirshfeld volume        :      9.25442579
  |   Hirshfeld dipole vector :     -0.02436370      -0.00674527       0.01813195
  |   Hirshfeld dipole moment :      0.03111039
  |   Hirshfeld second moments:      0.04813685      -0.00600009       0.02423955
  |                                 -0.00600009       0.04789470       0.01286576
  |                                  0.02423955       0.01286576       0.04806548
  ----------------------------------------------------------------------
  | Atom    17: O
  |   Hirshfeld charge        :     -0.22029345
  |   Free atom volume        :     23.95238533
  |   Hirshfeld volume        :     21.85737592
  |   Hirshfeld dipole vector :      0.00356788      -0.01765471       0.00980382
  |   Hirshfeld dipole moment :      0.02050691
  |   Hirshfeld second moments:      0.03883278       0.00289617       0.00240019
  |                                  0.00289617       0.05629854      -0.02039445
  |                                  0.00240019      -0.02039445       0.02961797
  ----------------------------------------------------------------------
  | Atom    18: H
  |   Hirshfeld charge        :      0.09462912
  |   Free atom volume        :     10.44207651
  |   Hirshfeld volume        :      9.40225945
  |   Hirshfeld dipole vector :      0.03073898      -0.02826018       0.01495658
  |   Hirshfeld dipole moment :      0.04435338
  |   Hirshfeld second moments:      0.03956054       0.01271654      -0.01178070
  |                                  0.01271654       0.05762585       0.00194035
  |                                 -0.01178070       0.00194035       0.04938734
  ----------------------------------------------------------------------
  | Atom    19: H
  |   Hirshfeld charge        :      0.08876448
  |   Free atom volume        :     10.44207651
  |   Hirshfeld volume        :     12.35842144
  |   Hirshfeld dipole vector :      0.01315392       0.02953039      -0.01435615
  |   Hirshfeld dipole moment :      0.03537186
  |   Hirshfeld second moments:      0.01543427      -0.01058282       0.00424662
  |                                 -0.01058282      -0.00588223       0.00310938
  |                                  0.00424662       0.00310938      -0.00171617
  ----------------------------------------------------------------------
  | Atom    20: O
  |   Hirshfeld charge        :     -0.23871682
  |   Free atom volume        :     23.95238533
  |   Hirshfeld volume        :     21.95086351
  |   Hirshfeld dipole vector :      0.02875364       0.02075737       0.01321856
  |   Hirshfeld dipole moment :      0.03784667
  |   Hirshfeld second moments:      0.02153843      -0.03439696      -0.03560577
  |                                 -0.03439696       0.03088869      -0.00645412
  |                                 -0.03560577      -0.00645412       0.04894204
  ----------------------------------------------------------------------
  | Atom    21: H
  |   Hirshfeld charge        :      0.12495865
  |   Free atom volume        :     10.44207651
  |   Hirshfeld volume        :      8.95334078
  |   Hirshfeld dipole vector :     -0.04586532       0.06303878       0.05120321
  |   Hirshfeld dipole moment :      0.09326995
  |   Hirshfeld second moments:      0.06810605      -0.00560925      -0.00985771
  |                                 -0.00560925       0.06399050      -0.01048920
  |                                 -0.00985771      -0.01048920       0.07408011
  ----------------------------------------------------------------------
  | Atom    22: H
  |   Hirshfeld charge        :      0.09987394
  |   Free atom volume        :     10.44207651
  |   Hirshfeld volume        :      9.25723344
  |   Hirshfeld dipole vector :      0.02117632       0.02251456      -0.03066123
  |   Hirshfeld dipole moment :      0.04353680
  |   Hirshfeld second moments:      0.04925582      -0.02203245       0.00835254
  |                                 -0.02203245       0.05956422       0.01237985
  |                                  0.00835254       0.01237985       0.04203299
  ----------------------------------------------------------------------


------------------------------------------------------------------------------
  Final output of selected total energy values:

  The following output summarizes some interesting total energy values
  at the end of a run (AFTER all relaxation, molecular dynamics, etc.).

  | Total energy of the DFT / Hartree-Fock s.c.f. calculation      :         -14596.688735462 eV
  | Final zero-broadening corrected energy (caution - metals only) :         -14596.691556410 eV
  | For reference only, the value of 1 Hartree used in FHI-aims is :             27.211384500 eV

  Before relying on these values, please be sure to understand exactly which
  total energy value is referred to by a given number. Different objects may
  all carry the same name 'total energy'. Definitions:

  Total energy of the DFT / Hartree-Fock s.c.f. calculation:
  | Note that this energy does not include ANY quantities calculated after the
  | s.c.f. cycle, in particular not ANY RPA, MP2, etc. many-body perturbation terms.

  Final zero-broadening corrected energy:
  | For metallic systems only, a broadening of the occupation numbers at the Fermi
  | level can be extrapolated back to zero broadening by an electron-gas inspired
  | formula. For all systems that are not real metals, this value can be
  | meaningless and should be avoided.

------------------------------------------------------------------------------

------------------------------------------------------------
          Leaving FHI-aims.
          Date     :  20150727, Time     :  123359.356

          Computational steps:
          | Number of self-consistency cycles          :           16

          Detailed time accounting                     :  max(cpu_time)    wall_clock(cpu1)
          | Total time                                 :       85.412 s          85.450 s
          | Preparation time                           :        0.170 s           0.642 s
          | Grid partitioning                          :        0.230 s           0.230 s
          | Preloading free-atom quantities on grid    :        0.014 s           0.013 s
          | Free-atom superposition energy             :        0.129 s           0.129 s
          | Total time for integrations                :       38.909 s          38.906 s
          | Total time for solution of K.-S. equations :        2.510 s           2.516 s
          | Total time for density & force components  :       28.701 s          28.693 s
          | Total time for mixing                      :        0.306 s           0.309 s
          | Total time for Hartree multipole update    :        0.110 s           0.112 s
          | Total time for Hartree multipole sum       :       13.235 s          13.238 s
          | Total time for total energy evaluation     :        0.007 s           0.024 s
          | Total time for scaled ZORA corrections     :        0.000 s           0.000 s
          | Total time for TS (2009) vdW correction    :        0.112 s           0.117 s

          Have a nice day.
------------------------------------------------------------
