  MPI-parallelism will be employed.
------------------------------------------------------------
          Invoking FHI-aims ...
          Version 081213
          Compiled on 2013/08/29 at 17:41:06 on host generoso.

          When using FHI-aims, please cite the following reference:

          Volker Blum, Ralf Gehrke, Felix Hanke, Paula Havu,
          Ville Havu, Xinguo Ren, Karsten Reuter, and Matthias Scheffler,
          'Ab Initio Molecular Simulations with Numeric Atom-Centered Orbitals: FHI-aims',
          Computer Physics Communications 180, 2175-2196 (2009)

          For any questions about FHI-aims, please visit the aimsclub website
          with its forums and wiki. Contributions to both the forums and the
          wiki are warmly encouraged - they are for you, and everyone is welcome there.

------------------------------------------------------------

  Date     :  20150727, Time     :  121845.653
  Time zero on CPU 1             :   0.369940000000000E-01  s.
  Internal wall clock time zero  :           207231525.653  s.

  Using        8 parallel tasks.
  Task        0 on host gen59 reporting.
  Task        1 on host gen59 reporting.
  Task        2 on host gen59 reporting.
  Task        3 on host gen59 reporting.
  Task        4 on host gen59 reporting.
  Task        5 on host gen59 reporting.
  Task        6 on host gen59 reporting.
  Task        7 on host gen59 reporting.

  Performing system and environment tests:
  | Environment variable OMP_NUM_THREADS correctly set to 1.
  | Checking for scalapack...
  | No scalapack compiled in.

  Obtaining array dimensions for all initial allocations:
  
  -----------------------------------------------------------------------
  Parsing control.in (first pass over file, find array dimensions only).
  The contents of control.in will be repeated verbatim below
  unless switched off by setting 'verbatim_writeout .false.' .
  in the first line of control.in .
  -----------------------------------------------------------------------
  
  #########################################################################################
  #
  #  Volker Blum, FHI 2008 : Test run input file control.in
  #
  #########################################################################################
  #
  #  Physical model
  #
    xc                 rpbe
    spin               none
    relativistic       atomic_zora scalar
    charge             0.
   vdw_correction_hirshfeld
  #
  #  SCF convergence
  #
    occupation_type    gaussian 0.01
    mixer              pulay
      n_max_pulay        10
      charge_mix_param   0.1
    sc_accuracy_rho    5E-5
    sc_accuracy_eev    5E-3
    sc_accuracy_etot   5E-6
    sc_iter_limit      3000
  #
  #  Eigenvalue solver
  #
    KS_method          lapack
      empty_states       8
      basis_threshold    0.e-5
  #
  #  Efficiency
  #
  #   all previous settings are now default, except stratmann still
  #   undecided. Continue to handle stratmann with care, if at all.
  #
  #  partition_type stratmann
    partition_type rho_r2
  #  hartree_partition_type stratmann
  #
  #  Oprions for large clusters (100's of atoms: memory saving / better scaling)
  #
  # for periodic systems:
  #
    density_update_method orbital
    packed_matrix_format none
  #  k_grid 6 6 6
  #  output k_eigenvalue 1
  #  distributed_spline_storage .true.
  #
  #  Relaxation
  #
  #  relax_geometry   bfgs 5.e-3
    sc_accuracy_forces 5.E-4
    final_forces_cleaned .true.
  #
  #  Output options
  #
  #  output mulliken
    output Hirshfeld
  #  output dipole
  
  #harmonic_length_scale 0.001
  
  ################################################################################
  #
  #  FHI-aims code project
  #  VB, Fritz-Haber Institut, 2007
  #
  #  Suggested "safe" defaults for H atom (to be pasted into control.in file)
  #  Basis constructed for a non-relativistic H2 molecule using the
  #  PW-LDA functional.
  #
  ################################################################################
    species        H
  #     global species definitions
      nucleus             1
      cut_pot             4.0  2.0  1.0
      cut_free_atom       finite 8.0
      logarithmic         0.00010000 100.00  1.0123
      basis_dep_cutoff    1d-4  # 1d-4 is safe default - please check 5d-4 if you wish!
      radial_base         24 7.0
      radial_multiplier   2
      angular_grids       specified
        division   0.2783  110
        division   0.3822  194
        division   0.5626  302
  #      division   0.5922  434
  #      division   0.6227  590
  #      division   0.7206  770
        outer_grid  302
      l_hartree           4
  ################################################################################
  #
  #  Definition of "minimal" basis
  #
  ################################################################################
  #     valence basis states
      valence      1  s   1.
  #     ion occupancy
      ion_occ      1  s   0.5
  ################################################################################
  #
  #  Suggested additional basis functions. For production calculations,
  #  uncomment them one after another (the most important basis functions are
  #  listed first).
  #
  ################################################################################
  #  "First tier" - improvements: -1014.90 meV to -62.69 meV
       hydro 2 s 2.1
       hydro 2 p 3.5
  #  "Second tier" - improvements: -12.89 meV to -1.83 meV
       hydro 1 s 0.85
       hydro 2 p 3.7
       hydro 2 s 1.2
       hydro 3 d 7
  #  "Third tier" - improvements: -0.25 meV to -0.12 meV
  #     hydro 4 f 11.2
  #     hydro 3 p 4.8
  #     hydro 4 d 9
  #     hydro 3 s 3.2
  
  ################################################################################
  #
  #  FHI-aims code project
  #  VB, Fritz-Haber Institut, 2007
  #
  #  Suggested "safe" defaults for O atom (to be pasted into control.in file)
  #  All values have been tested for a non-relativistic, non-spinpolarized O2
  #  molecule using the PW-LDA functional. Validity for PBE is expected.
  #
  #  Constructed for dimers: 1.0 A, 1.208 A, 1.5 A, 2.0 A, 3.0 A
  #
  ################################################################################
    species        O
  #     global species definitions
      nucleus             8
      mass                15.9994
      l_hartree           4
      cut_pot             4.0  2.0  1.0
      cut_free_atom       finite 8.0
      basis_dep_cutoff    1d-4  # 1d-4 is safe default - please check 5d-4 if you wish!
      logarithmic         0.00010000 100.00  1.0123
      radial_base         36 7.0
      radial_multiplier   2
       angular_grids specified
        division   0.4087  110
        division   0.5181  194
        division   0.6184  302
  #      division   0.7315  434
  #      division   0.7934  590
  #      division   0.9656  770
  #      division   1.4041  974
  #      outer_grid 974
        outer_grid 302
  ################################################################################
  #
  #  Definition of "minimal" basis
  #
  ################################################################################
  #     valence basis states
      valence      2  s   2.
      valence      2  p   4.
  #     ion occupancy
      ion_occ      2  s   1.
      ion_occ      2  p   3.
  ################################################################################
  #
  #  Suggested additional basis functions. For production calculations,
  #  uncomment them one after another (the most important basis functions are
  #  listed first).
  #
  ################################################################################
  #  "First tier" - improvements: -699.05 meV to -159.38 meV
       hydro 2 p 1.8
       hydro 3 d 7.6
       hydro 3 s 6.4
  #  "Second tier" - improvements: -49.91 meV to -5.39 meV
       hydro 4 f 11.6
       hydro 3 p 6.2
       hydro 3 d 5.6
       hydro 5 g 17.6
       hydro 1 s 0.75
  #  "Third tier" - improvements: -2.83 meV to -0.50 meV
  #     ionic 2 p auto
  #     hydro 4 f 10.8
  #     hydro 4 d 4.7
  #     hydro 2 s 6.8
  #  "Fourth tier" - improvements: -0.40 meV to -0.12 meV
  #     hydro 3 p 5
  #     hydro 3 s 3.3
  #     hydro 5 g 15.6
  #     hydro 4 f 17.6
  #     hydro 4 d 14
  # Further basis functions - -0.08 meV and below
  #     hydro 3 s 2.1
  #     hydro 4 d 11.6
  #     hydro 3 p 16
  #     hydro 2 s 17.2
  
  
  -----------------------------------------------------------------------
  Completed first pass over input file control.in .
  -----------------------------------------------------------------------
  
  
  -----------------------------------------------------------------------
  Parsing geometry.in (first pass over file, find array dimensions only).
  The contents of geometry.in will be repeated verbatim below
  unless switched off by setting 'verbatim_writeout .false.' .
  in the first line of geometry.in .
  -----------------------------------------------------------------------
  
  atom      -4.053030000      0.065001000     -1.525160000  O
  atom      -4.566710000      0.974813000     -1.912820000  H
  atom      -3.067820000      0.330172000     -1.477310000  H
  atom      -4.370360000     -0.049164000     -0.572274000  H
  atom      -4.581760000     -0.256435000      0.939478000  O
  atom      -4.349860000      0.471090000      1.504340000  H
  atom      -5.393870000     -0.726611000      1.228070000  H
  atom      -1.645860000      0.870179000     -1.502250000  O
  atom      -1.568890000      1.501730000     -0.721051000  H
  atom      -0.824432000      0.282220000     -1.377720000  H
  atom      -3.818880000      2.024990000      2.187990000  O
  atom      -3.690880000      1.961360000      3.202150000  H
  atom      -4.546490000      2.751300000      2.045370000  H
  
  -----------------------------------------------------------------------
  Completed first pass over input file geometry.in .
  -----------------------------------------------------------------------
  
 
  Basic array size parameters: 
  | Number of species                 :        2
  | Number of atoms                   :       13
  | Max. basis fn. angular momentum   :        4
  | Max. atomic/ionic basis occupied n:        2
  | Max. number of basis fn. types    :        2
  | Max. radial fns per species/type  :        8
  | Max. logarithmic grid size        :     1301
  | Max. radial integration grid size :       73
  | Max. angular integration grid size:      302
  | Max. angular grid division number :        8
  | Radial grid for Hartree potential :     1301
  | Number of spin channels           :        1

------------------------------------------------------------
          Reading file control.in.
------------------------------------------------------------
  XC: Using RPBE gradient-corrected functionals.
  Spin treatment: No spin polarisation.
  Scalar relativistic treatment of kinetic energy: on-site free-atom approximation to ZORA.
  Charge =   0.000000E+00: Neutral system requested explicitly.
  Using non-empirical van der Waals correction (Hirshfeld partitioning):
  Occupation type: Gaussian broadening, width =   0.100000E-01 eV.
  Using pulay charge density mixing.
  Pulay mixing - number of memorized iterations:   10
  Charge density mixing - mixing parameter:     0.1000
  Convergence accuracy of self-consistent charge density: 0.5000E-04
  Convergence accuracy of sum of eigenvalues: 0.5000E-02
  Convergence accuracy of total energy: 0.5000E-05
  Maximum number of s.-c. iterations  :  3000
  Kohn-Sham eigenvalues and eigenfunctions calculated by lapack diagonalisation (D&C).
  Number of empty states per atom:        8
  Threshold for basis singularities: 0.0000E+00
  Partition function in integrals calculations: rho / r^2
 Using packed matrix format           0
  Convergence accuracy of forces: 0.5000E-03
  Cleaning forces before final output.
  Hirshfeld charge analysis will be performed.
 
  Reading configuration options for species H                   .
  | Found nuclear charge :   1.0000
  | Found cutoff potl. onset [A], width [A], scale factor :    4.00000    2.00000    1.00000
  | Found cutoff specification for free atom: Cutoff potential begins at    8.00000 A.
  | Found logarithmic grid data [bohr] : 0.1000E-03 0.1000E+03 0.1012E+01
  | Threshold for basis-dependent cutoff potential is   0.100000E-03
  | Found data for basic radial integration grid :    24 points, outermost radius =    7.000 A
  | Found multiplier for basic radial grid :   2
  | Found angular grid specification: user-specified.
  | Specified grid contains     4 separate shells.
  | Check grid settings after all constraints further below.
  | Found l_max for Hartree potential  :   4
  | Found free-atom valence shell :  1 s   1.000
  | No ionic wave fns used. Skipping ion_occ.
  | Found hydrogenic basis function :  2 s   2.100
  | Found hydrogenic basis function :  2 p   3.500
  | Found hydrogenic basis function :  1 s   0.850
  | Found hydrogenic basis function :  2 p   3.700
  | Found hydrogenic basis function :  2 s   1.200
  | Found hydrogenic basis function :  3 d   7.000
  Species H                   : Missing cutoff potential type.
  Defaulting to exp(1/x)/(1-x)^2 type cutoff potential.
  Species H : On-site basis accuracy parameter (for Gram-Schmidt orthonormalisation) not specified.
  Using default value basis_acc =  0.1000000E-03.
  Species H                   : Using default innermost maximum threshold i_radial=  2 for radial functions.
  Species H                   : Basic radial grid will be enhanced according to radial_multiplier =   2, to contain    49 grid points.
 
  Reading configuration options for species O                   .
  | Found nuclear charge :   8.0000
  | Found atomic mass :    15.9994000000000      amu
  | Found l_max for Hartree potential  :   4
  | Found cutoff potl. onset [A], width [A], scale factor :    4.00000    2.00000    1.00000
  | Found cutoff specification for free atom: Cutoff potential begins at    8.00000 A.
  | Threshold for basis-dependent cutoff potential is   0.100000E-03
  | Found logarithmic grid data [bohr] : 0.1000E-03 0.1000E+03 0.1012E+01
  | Found data for basic radial integration grid :    36 points, outermost radius =    7.000 A
  | Found multiplier for basic radial grid :   2
  | Found angular grid specification: user-specified.
  | Specified grid contains     4 separate shells.
  | Check grid settings after all constraints further below.
  | Found free-atom valence shell :  2 s   2.000
  | Found free-atom valence shell :  2 p   4.000
  | No ionic wave fns used. Skipping ion_occ.
  | No ionic wave fns used. Skipping ion_occ.
  | Found hydrogenic basis function :  2 p   1.800
  | Found hydrogenic basis function :  3 d   7.600
  | Found hydrogenic basis function :  3 s   6.400
  | Found hydrogenic basis function :  4 f  11.600
  | Found hydrogenic basis function :  3 p   6.200
  | Found hydrogenic basis function :  3 d   5.600
  | Found hydrogenic basis function :  5 g  17.600
  | Found hydrogenic basis function :  1 s   0.750
  Species O                   : Missing cutoff potential type.
  Defaulting to exp(1/x)/(1-x)^2 type cutoff potential.
  Species O : On-site basis accuracy parameter (for Gram-Schmidt orthonormalisation) not specified.
  Using default value basis_acc =  0.1000000E-03.
  Species O                   : Using default innermost maximum threshold i_radial=  2 for radial functions.
  Species O                   : Basic radial grid will be enhanced according to radial_multiplier =   2, to contain    73 grid points.
 
  Finished reading input file 'control.in'. Consistency checks are next.
 
  Target number of points in a grid batch is not set. Defaulting to  100
  Method for grid partitioning is not set. Defaulting to parallel hash+maxmin partitioning.
  Batch size limit is not set. Defaulting to    200
  By default, will store active basis functions for each batch.
  If in need of memory, prune_basis_once .false. can be used to disable this option.
  communication_type for Hartree potential was not specified.
  Defaulting to calc_hartree .
  Pulay mixer: Number of initial linear mixing iterations not set.
  Defaulting to    0 iterations.
  Work space size for distributed Hartree potential not set.
  Defaulting to   0.200000E+03 MB.
  Algorithm-dependent basis array size parameters:
  | n_max_pulay                         :       10
  Geometry relaxation not requested: no relaxation will be performed.
  Handling of forces: Unphysical translation and rotation will be removed from forces.
  No accuracy limit for integral partition fn. given. Defaulting to 0.1000E-14.
  No threshold value for u(r) in integrations given. Defaulting to 0.1000E-05.
  No accuracy for occupation numbers given. Defaulting to 0.1000E-07.
  No threshold value for occupation numbers given. Defaulting to 0.0000E+00.
  No accuracy for fermi level given. Defaulting to 0.1000E-19.
  Maximum # of iterations to find E_F not set. Defaulting to  200.
  Will not use alltoall communication since running on < 1024 CPUs.
  Partitioning for Hartree potential was not defined. Using partition_type for integrals.
  | Reporting present value of keyword multip_moments_threshold  :       0.10000000E-09
  | This value may affect high angular momentum components of the Hartree potential in periodic systems.
  No q(lm)/r^(l+1) cutoff set for long-range Hartree potential.
  | Using default value of  0.100000E-09 .
  | Verify using the multipole_threshold keyword.
  Defaulting to new monopole extrapolation.
  Density update method: Loop over occupied states selected for charge density update.
------------------------------------------------------------


------------------------------------------------------------
          Reading geometry description geometry.in.
------------------------------------------------------------
  Input structure read successfully.
  The structure contains       13 atoms,  and a total of         41.000 electrons.

  Input geometry:
  | No unit cell requested.
  | Atomic structure:
  |       Atom                x [A]            y [A]            z [A]
  |    1: Species O             -4.053030         0.065001        -1.525160
  |    2: Species H             -4.566710         0.974813        -1.912820
  |    3: Species H             -3.067820         0.330172        -1.477310
  |    4: Species H             -4.370360        -0.049164        -0.572274
  |    5: Species O             -4.581760        -0.256435         0.939478
  |    6: Species H             -4.349860         0.471090         1.504340
  |    7: Species H             -5.393870        -0.726611         1.228070
  |    8: Species O             -1.645860         0.870179        -1.502250
  |    9: Species H             -1.568890         1.501730        -0.721051
  |   10: Species H             -0.824432         0.282220        -1.377720
  |   11: Species O             -3.818880         2.024990         2.187990
  |   12: Species H             -3.690880         1.961360         3.202150
  |   13: Species H             -4.546490         2.751300         2.045370
  |

  | The smallest distance between any two atoms is         0.94981015 AA.
  |
  | The first atom of this pair is atom number                      5 .
  | The second atom of this pair is atom number                     6 .

  Structure-dependent array size parameters: 
  | Maximum number of distinct radial functions  :       18
  | Maximum number of basis functions            :      291
  | Number of Kohn-Sham states (occupied + empty):       73
------------------------------------------------------------

------------------------------------------------------------
          Preparing all fixed parts of the calculation.
------------------------------------------------------------
  Determining machine precision:
    2.225073858507201E-308
  Setting up grids for atomic and cluster calculations.

  Creating wave function, potential, and density for free atoms.

  Species: H

  List of occupied orbitals and eigenvalues:
    n    l              occ      energy [Ha]    energy [eV]
    1    0           1.0000        -0.241408        -6.5691


  Species: O

  List of occupied orbitals and eigenvalues:
    n    l              occ      energy [Ha]    energy [eV]
    1    0           2.0000       -18.944147      -515.4965
    2    0           2.0000        -0.883529       -24.0421
    2    1           4.0000        -0.330176        -8.9845

  Creating fixed part of basis set: Ionic, confined, hydrogenic.
 
  H                    hydrogenic:
 
  List of hydrogenic basis orbitals: 
    n    l      effective z      eigenvalue [eV]  inner max. [A]     outer max. [A]     outer radius [A]   
    2    0         2.100000       -14.9965           0.193241           1.317192           5.372934
    2    1         3.500000       -41.6672           0.602363           0.602363           4.056010
    1    0         0.850000        -9.8292           0.624864           0.624864           5.372934
    2    1         3.700000       -46.5653           0.573616           0.573616           3.909951
    2    0         1.200000        -4.5995           0.334977           2.228160           5.505921
    3    2         7.000000       -74.0753           0.680692           0.680692           3.769152
 
 
  O                    hydrogenic:
 
  List of hydrogenic basis orbitals: 
    n    l      effective z      eigenvalue [eV]  inner max. [A]     outer max. [A]     outer radius [A]   
    2    1         1.800000       -11.0118           1.178546           1.178546           5.432516
    3    2         7.600000       -87.3182           0.624117           0.624117           3.541422
    3    0         6.400000       -61.9209           0.061166           1.081887           4.306510
    4    3        11.600000      -114.4238           0.731621           0.731621           3.584982
    3    1         6.200000       -58.1113           0.255677           1.030255           4.306510
    3    2         5.600000       -47.4081           0.847222           0.847222           4.413102
    5    4        17.600000      -168.5799           0.749730           0.749730           3.372413
    1    0         0.750000        -7.6499           0.705275           0.705275           5.366508
 

  Adding cutoff potential to free-atom effective potential.
  Creating atomic-like basis functions for current effective potential.

  Species H                   :

  List of atomic basis orbitals and eigenvalues:
    n    l      energy [Ha]    energy [eV]    outer radius [A]
    1    0        -0.241374        -6.5681       5.372934


  Species O                   :

  List of atomic basis orbitals and eigenvalues:
    n    l      energy [Ha]    energy [eV]    outer radius [A]
    1    0       -18.944147      -515.4965       1.415745
    2    0        -0.883529       -24.0421       5.048305
    2    1        -0.330173        -8.9845       5.301302

  Assembling full basis from fixed parts.
  | Species H :   atomic orbital   1 s accepted.
  | Species H :    hydro orbital   2 s accepted.
  | Species H :    hydro orbital   1 s accepted.
  | Species H :    hydro orbital   2 s accepted.
  | Species H :    hydro orbital   2 p accepted.
  | Species H :    hydro orbital   2 p accepted.
  | Species H :    hydro orbital   3 d accepted.
  | Species O :   atomic orbital   1 s accepted.
  | Species O :    hydro orbital   3 s accepted.
  | Species O :   atomic orbital   2 s accepted.
  | Species O :    hydro orbital   1 s accepted.
  | Species O :    hydro orbital   3 p accepted.
  | Species O :   atomic orbital   2 p accepted.
  | Species O :    hydro orbital   2 p accepted.
  | Species O :    hydro orbital   3 d accepted.
  | Species O :    hydro orbital   3 d accepted.
  | Species O :    hydro orbital   4 f accepted.
  | Species O :    hydro orbital   5 g accepted.
 
  Basis size parameters after reduction:
  | Total number of radial functions:       18
  | Total number of basis functions :      291
 
  Testing on-site integration grid accuracy.
  |  Species  Function  <phi|h_atom|phi> (log., in eV)  <phi|h_atom|phi> (rad., in eV)
           1        1                 -6.5683835025                 -6.5684759159
           1        2                 13.3711789951                 13.3708738703
           1        3                 23.6590910787                 23.6532055418
           1        4                 16.2963827186                 16.1870710655 ***
           1        5                 28.7627214838                 28.7627215090
           1        6                 59.5965249172                 59.5965950857
           1        7                 60.2220506392                 60.2220503827
           2        8               -515.4964576505               -515.4964530710
           2        9                 15.3030791347                 15.3030722972
           2       10                -21.7296094581                -21.7296135470
           2       11                 14.2969371730                 14.2969701621
           2       12                 21.0679693190                 21.0679697493
           2       13                 -2.3833606469                 -2.3833613176
           2       14                 13.7067136422                 13.7066766629
           2       15                 45.8013116808                 45.8013116965
           2       16                 52.2309815402                 52.2309831494
           2       17                 85.4120732416                 85.4120732763
           2       18                142.1019167745                142.1019167817
 * Note: Onsite integrals marked "***" above are less accurate than
 * onsite_accuracy_threshold =    0.03000 eV. Usually, this is harmless.
 * When in doubt, tighten the "radial" and/or "radial_multiplier" flags to check.

  Preparing densities etc. for the partition functions (integrals / Hartree potential).

  Preparations completed.
  max(cpu_time)          :      0.172 s.
  Wall clock time (cpu1) :      0.518 s.
------------------------------------------------------------

------------------------------------------------------------
          Begin self-consistency loop: Initialization.

          Date     :  20150727, Time     :  121846.198
------------------------------------------------------------

  Initializing index lists of integration centers etc. from given atomic structure:
  | Number of centers in hartree potential         :        13
  | Number of centers in hartree multipole         :        13
  | Number of centers in electron density summation:        13
  | Number of centers in basis integrals           :        13
  | Number of centers in integrals                 :        13
  Partitioning the integration grid into batches with parallel hashing+maxmin method.
  | Number of batches:     1862
  | Maximal batch size:     194
  | Minimal batch size:      52
  | Average batch size:      90.742
  | Standard deviation of batch sizes:      28.695

  Integration load balanced across     8 MPI tasks.
  Work distribution over tasks is as follows:
  Task     0 has      21114 integration points.
  Task     1 has      21155 integration points.
  Task     2 has      21132 integration points.
  Task     3 has      21064 integration points.
  Task     4 has      21134 integration points.
  Task     5 has      21163 integration points.
  Task     6 has      21054 integration points.
  Task     7 has      21146 integration points.
  Initializing partition tables, free-atom densities, potentials, etc. across the integration grid (initialize_grid_storage).
  | Net number of integration points:   168962
  | of which are non-zero points    :   168441
  Obtaining max. number of non-zero basis functions in each batch (get_n_compute_maxes).
  | Maximal number of non-zero basis functions:      289 in task     0
  | Maximal number of non-zero basis functions:      289 in task     1
  | Maximal number of non-zero basis functions:      289 in task     2
  | Maximal number of non-zero basis functions:      289 in task     3
  | Maximal number of non-zero basis functions:      289 in task     4
  | Maximal number of non-zero basis functions:      289 in task     5
  | Maximal number of non-zero basis functions:      289 in task     6
  | Maximal number of non-zero basis functions:      289 in task     7
  Integrating Hamiltonian matrix: batch-based integration.
  Time summed over all CPUs for integration: real work        5.377 s, elapsed        5.578 s
  Integrating overlap matrix.
  Time summed over all CPUs for integration: real work        2.856 s, elapsed        2.974 s

  Updating Kohn-Sham eigenvalues, eigenvectors, occupation numbers, and Fermi level.
  Solving generalized eigenproblem
  Updating Kohn-Sham eigenvalues and eigenfunctions.
  Transforming overlap matrix and checking for singularities.
  Overlap matrix is nonsingular:
  | Lowest eigenvalue:  0.193783E-03
  Solving real generalised eigenvalue problem by standard LAPACK (fast)
  Determining occupation numbers for Kohn-Sham eigenstates.
  | Chemical potential (Fermi level) in eV                 : -.27676672E+01
  | Error in electron count due to remaining E_F inaccuracy: -.31558045E-08
  | Maximum occupation number of highest empty state:  0.00E+00

  Writing Kohn-Sham eigenvalues.

  State    Occupation    Eigenvalue [Ha]    Eigenvalue [eV]
      1       2.00000         -19.065169         -518.78964
      2       2.00000         -19.059277         -518.62932
      3       2.00000         -19.042474         -518.17209
      4       2.00000         -19.032042         -517.88820
      5       2.00000          -1.127414          -30.67849
      6       2.00000          -1.105763          -30.08934
      7       2.00000          -1.081664          -29.43356
      8       2.00000          -1.064429          -28.96458
      9       2.00000          -0.655296          -17.83152
     10       2.00000          -0.647684          -17.62438
     11       2.00000          -0.610557          -16.61409
     12       2.00000          -0.601729          -16.37389
     13       2.00000          -0.593852          -16.15954
     14       2.00000          -0.525407          -14.29706
     15       2.00000          -0.507079          -13.79833
     16       2.00000          -0.493633          -13.43244
     17       2.00000          -0.483090          -13.14556
     18       2.00000          -0.446581          -12.15209
     19       2.00000          -0.435888          -11.86111
     20       2.00000          -0.425000          -11.56484
     21       1.00000          -0.101710           -2.76767
     22       0.00000          -0.077091           -2.09774
     23       0.00000          -0.066301           -1.80415
     24       0.00000          -0.045813           -1.24663
     25       0.00000          -0.015997           -0.43529
     26       0.00000          -0.011642           -0.31680
     27       0.00000           0.032252            0.87763
     28       0.00000           0.044700            1.21634
     29       0.00000           0.055584            1.51251
     30       0.00000           0.068623            1.86734
     31       0.00000           0.074643            2.03114
     32       0.00000           0.095954            2.61104
     33       0.00000           0.100289            2.72899
     34       0.00000           0.101975            2.77487
     35       0.00000           0.102811            2.79763
     36       0.00000           0.109063            2.96776
     37       0.00000           0.125882            3.42542
     38       0.00000           0.146649            3.99051
     39       0.00000           0.153920            4.18838
     40       0.00000           0.157856            4.29548
     41       0.00000           0.168166            4.57602
     42       0.00000           0.179977            4.89742
     43       0.00000           0.213314            5.80456
     44       0.00000           0.223846            6.09115
     45       0.00000           0.230155            6.26284
     46       0.00000           0.248798            6.77014
     47       0.00000           0.261949            7.12799
     48       0.00000           0.277064            7.53929
     49       0.00000           0.290467            7.90400
     50       0.00000           0.306333            8.33574
     51       0.00000           0.345759            9.40858
     52       0.00000           0.357521            9.72864
     53       0.00000           0.368164           10.01826
     54       0.00000           0.377146           10.26267
     55       0.00000           0.387626           10.54783
     56       0.00000           0.395885           10.77259
     57       0.00000           0.402954           10.96492
     58       0.00000           0.420582           11.44463
     59       0.00000           0.427397           11.63007
     60       0.00000           0.446493           12.14969
     61       0.00000           0.453160           12.33110
     62       0.00000           0.481853           13.11190
     63       0.00000           0.517905           14.09291
     64       0.00000           0.542548           14.76348
     65       0.00000           0.561118           15.26879
     66       0.00000           0.590504           16.06842
     67       0.00000           0.599974           16.32612
     68       0.00000           0.641076           17.44456
     69       0.00000           0.662302           18.02216
     70       0.00000           0.712033           19.37541
     71       0.00000           0.732412           19.92994
     72       0.00000           0.746282           20.30735
     73       0.00000           0.767802           20.89295

  Highest occupied state (VBM) at    -11.56484367 eV
  | Occupation number:      2.00000000

  Lowest unoccupied state (CBM) at    -2.76766723 eV
  | Occupation number:      1.00000000

  Overall HOMO-LUMO gap:      8.79717644 eV.
  Calculating total energy contributions from superposition of free atom densities.

  Total energy components:
  | Sum of eigenvalues            :        -174.10976628 Ha       -4737.76779540 eV
  | XC energy correction          :         -36.81410149 Ha       -1001.76267079 eV
  | XC potential correction       :          47.05341093 Ha        1280.38845687 eV
  | Free-atom electrostatic energy:        -143.03269640 Ha       -3892.11769791 eV
  | Hartree energy correction     :           0.00000000 Ha           0.00000000 eV
  | van der Waals energy corr.    :           0.00000000 Ha           0.00000000 eV
  | Entropy correction            :          -0.00010367 Ha          -0.00282095 eV
  | ---------------------------
  | Total energy                  :        -306.90315325 Ha       -8351.25970723 eV
  | Total energy, T -> 0          :        -306.90325691 Ha       -8351.26252818 eV  <-- do not rely on this value for anything but (periodic) metals
  | Electronic free energy        :        -306.90336058 Ha       -8351.26534912 eV

  Derived energy quantities:
  | Kinetic energy                :         304.03370149 Ha        8273.17795234 eV
  | Electrostatic energy          :        -574.12275325 Ha      -15622.67498877 eV
  | Energy correction for multipole
  | error in Hartree potential    :           0.00000000 Ha           0.00000000 eV
  | Sum of eigenvalues per atom                           :        -364.44367657 eV
  | Total energy (T->0) per atom                          :        -642.40480986 eV  <-- do not rely on this value for anything but (periodic) metals
  | Electronic free energy per atom                       :        -642.40502686 eV
  Initialize hartree_potential_storage
  Max. number of atoms included in rho_multipole:           13

  End scf initialization - timings             :  max(cpu_time)    wall_clock(cpu1)
  | Time for scf. initialization               :        1.505 s           1.501 s
  | Boundary condition initialization          :        0.000 s           0.000 s
  | Integration                                :        1.072 s           1.072 s
  | Solution of K.-S. eqns.                    :        0.135 s           0.135 s
  | Grid partitioning                          :        0.127 s           0.127 s
  | Preloading free-atom quantities on grid    :        0.014 s           0.013 s
  | Free-atom superposition energy             :        0.051 s           0.051 s
  | Total energy evaluation                    :        0.000 s           0.000 s
------------------------------------------------------------

------------------------------------------------------------
          Begin self-consistency iteration #    1

  Date     :  20150727, Time     :  121847.699
------------------------------------------------------------
  Evaluating new KS density.
  Integration grid: deviation in total charge (<rho> - N_e) =  -3.155783E-09
  Pulay mixing of updated and previous charge densities.

  Evaluating partitioned Hartree potential by multipole expansion.
  | Analytical far-field extrapolation by fixed multipoles:
  | Hartree multipole sum: apparent total charge =  -0.106387E-05
  Summing up the Hartree potential.
  Time summed over all CPUs for potential: real work        1.922 s, elapsed        1.931 s
  | RMS charge density error from multipole expansion :   0.145385E-02

  Integrating Hamiltonian matrix: batch-based integration.
  Time summed over all CPUs for integration: real work        5.380 s, elapsed        5.570 s

  Updating Kohn-Sham eigenvalues, eigenvectors, occupation numbers, and Fermi level.
  Solving generalized eigenproblem
  Updating Kohn-Sham eigenvalues and eigenfunctions.
  Solving real generalised eigenvalue problem by standard LAPACK (fast)
  Determining occupation numbers for Kohn-Sham eigenstates.
  | Chemical potential (Fermi level) in eV                 : -.25488453E+01
  | Error in electron count due to remaining E_F inaccuracy: -.17510757E-08
  | Maximum occupation number of highest empty state:  0.00E+00

  Writing Kohn-Sham eigenvalues.

  State    Occupation    Eigenvalue [Ha]    Eigenvalue [eV]
      1       2.00000         -19.005490         -517.16568
      2       2.00000         -18.983433         -516.56548
      3       2.00000         -18.974533         -516.32330
      4       2.00000         -18.961860         -515.97847
      5       2.00000          -1.096495          -29.83715
      6       2.00000          -1.068910          -29.08653
      7       2.00000          -1.048339          -28.52676
      8       2.00000          -1.029714          -28.01994
      9       2.00000          -0.623484          -16.96586
     10       2.00000          -0.619328          -16.85278
     11       2.00000          -0.584503          -15.90514
     12       2.00000          -0.573688          -15.61086
     13       2.00000          -0.565144          -15.37834
     14       2.00000          -0.492913          -13.41284
     15       2.00000          -0.472578          -12.85951
     16       2.00000          -0.459673          -12.50833
     17       2.00000          -0.450060          -12.24676
     18       2.00000          -0.407981          -11.10172
     19       2.00000          -0.400978          -10.91117
     20       2.00000          -0.388457          -10.57046
     21       1.00000          -0.093668           -2.54885
     22       0.00000          -0.069579           -1.89334
     23       0.00000          -0.058670           -1.59649
     24       0.00000          -0.038467           -1.04675
     25       0.00000          -0.009348           -0.25436
     26       0.00000          -0.003797           -0.10333
     27       0.00000           0.040377            1.09873
     28       0.00000           0.050938            1.38610
     29       0.00000           0.060268            1.63996
     30       0.00000           0.075979            2.06749
     31       0.00000           0.081084            2.20640
     32       0.00000           0.103479            2.81581
     33       0.00000           0.106655            2.90223
     34       0.00000           0.108454            2.95120
     35       0.00000           0.109816            2.98825
     36       0.00000           0.116513            3.17049
     37       0.00000           0.141389            3.84739
     38       0.00000           0.157142            4.27604
     39       0.00000           0.166116            4.52026
     40       0.00000           0.172973            4.70682
     41       0.00000           0.175964            4.78823
     42       0.00000           0.188661            5.13372
     43       0.00000           0.220457            5.99893
     44       0.00000           0.232026            6.31374
     45       0.00000           0.238215            6.48215
     46       0.00000           0.256018            6.96662
     47       0.00000           0.269106            7.32275
     48       0.00000           0.283932            7.72619
     49       0.00000           0.296155            8.05878
     50       0.00000           0.313305            8.52546
     51       0.00000           0.352682            9.59698
     52       0.00000           0.365430            9.94385
     53       0.00000           0.376165           10.23597
     54       0.00000           0.384854           10.47241
     55       0.00000           0.396102           10.77848
     56       0.00000           0.402396           10.94975
     57       0.00000           0.410768           11.17757
     58       0.00000           0.428292           11.65442
     59       0.00000           0.434572           11.82530
     60       0.00000           0.453536           12.34135
     61       0.00000           0.462238           12.57814
     62       0.00000           0.489399           13.31723
     63       0.00000           0.526116           14.31633
     64       0.00000           0.552962           15.04686
     65       0.00000           0.571404           15.54870
     66       0.00000           0.601041           16.35517
     67       0.00000           0.609813           16.59385
     68       0.00000           0.651834           17.73730
     69       0.00000           0.672083           18.28832
     70       0.00000           0.722721           19.66623
     71       0.00000           0.741964           20.18988
     72       0.00000           0.756426           20.58340
     73       0.00000           0.775200           21.09425

  Highest occupied state (VBM) at    -10.57045697 eV
  | Occupation number:      2.00000000

  Lowest unoccupied state (CBM) at    -2.54884531 eV
  | Occupation number:      1.00000000

  Overall HOMO-LUMO gap:      8.02161165 eV.

  Total energy components:
  | Sum of eigenvalues            :        -172.50879009 Ha       -4694.20301668 eV
  | XC energy correction          :         -36.98362320 Ha       -1006.37559123 eV
  | XC potential correction       :          47.27478048 Ha        1286.41222874 eV
  | Free-atom electrostatic energy:        -143.03269640 Ha       -3892.11769791 eV
  | Hartree energy correction     :          -1.56386988 Ha         -42.55506460 eV
  | van der Waals energy corr.    :           0.00000000 Ha           0.00000000 eV
  | Entropy correction            :          -0.00010367 Ha          -0.00282095 eV
  | ---------------------------
  | Total energy                  :        -306.81419910 Ha       -8348.83914168 eV
  | Total energy, T -> 0          :        -306.81430276 Ha       -8348.84196262 eV  <-- do not rely on this value for anything but (periodic) metals
  | Electronic free energy        :        -306.81440643 Ha       -8348.84478357 eV

  Derived energy quantities:
  | Kinetic energy                :         305.06419567 Ha        8301.21912550 eV
  | Electrostatic energy          :        -574.89477156 Ha      -15643.68267595 eV
  | Energy correction for multipole
  | error in Hartree potential    :           0.00031773 Ha           0.00864587 eV
  | Sum of eigenvalues per atom                           :        -361.09253974 eV
  | Total energy (T->0) per atom                          :        -642.21861251 eV  <-- do not rely on this value for anything but (periodic) metals
  | Electronic free energy per atom                       :        -642.21882951 eV

  Self-consistency convergence accuracy:
  | Change of charge density      : 0.5514E+00
  | Change of sum of eigenvalues  : 0.4356E+02 eV
  | Change of total energy        : 0.2421E+01 eV

  End self-consistency iteration #     1       :  max(cpu_time)    wall_clock(cpu1)
  | Time for this iteration                    :        1.459 s           1.458 s
  | Charge density update                      :        0.475 s           0.475 s
  | Density mixing                             :        0.003 s           0.003 s
  | Hartree multipole update                   :        0.004 s           0.004 s
  | Hartree multipole summation                :        0.243 s           0.242 s
  | Integration                                :        0.697 s           0.698 s
  | Solution of K.-S. eqns.                    :        0.036 s           0.035 s
  | Total energy evaluation                    :        0.000 s           0.000 s
------------------------------------------------------------

------------------------------------------------------------
          Begin self-consistency iteration #    2

  Date     :  20150727, Time     :  121849.158
------------------------------------------------------------
  Evaluating new KS density.
  Integration grid: deviation in total charge (<rho> - N_e) =  -1.751062E-09
  Pulay mixing of updated and previous charge densities.

  Evaluating partitioned Hartree potential by multipole expansion.
  | Analytical far-field extrapolation by fixed multipoles:
  | Hartree multipole sum: apparent total charge =  -0.391857E-05
  Summing up the Hartree potential.
  Time summed over all CPUs for potential: real work        1.922 s, elapsed        1.933 s
  | RMS charge density error from multipole expansion :   0.585935E-02

  Integrating Hamiltonian matrix: batch-based integration.
  Time summed over all CPUs for integration: real work        5.361 s, elapsed        5.558 s

  Updating Kohn-Sham eigenvalues, eigenvectors, occupation numbers, and Fermi level.
  Solving generalized eigenproblem
  Updating Kohn-Sham eigenvalues and eigenfunctions.
  Solving real generalised eigenvalue problem by standard LAPACK (fast)
  Determining occupation numbers for Kohn-Sham eigenstates.
  | Chemical potential (Fermi level) in eV                 : -.20444377E+01
  | Error in electron count due to remaining E_F inaccuracy: -.21672264E-09
  | Maximum occupation number of highest empty state:  0.00E+00

  Highest occupied state (VBM) at     -8.19232944 eV
  | Occupation number:      2.00000000

  Lowest unoccupied state (CBM) at    -2.04443773 eV
  | Occupation number:      1.00000000

  Overall HOMO-LUMO gap:      6.14789171 eV.

  Total energy components:
  | Sum of eigenvalues            :        -168.73900704 Ha       -4591.62200080 eV
  | XC energy correction          :         -37.40365486 Ha       -1017.80523412 eV
  | XC potential correction       :          47.82196736 Ha        1301.30194127 eV
  | Free-atom electrostatic energy:        -143.03269640 Ha       -3892.11769791 eV
  | Hartree energy correction     :          -5.36347688 Ha        -145.94763163 eV
  | van der Waals energy corr.    :           0.00000000 Ha           0.00000000 eV
  | Entropy correction            :          -0.00010367 Ha          -0.00282095 eV
  | ---------------------------
  | Total energy                  :        -306.71686783 Ha       -8346.19062318 eV
  | Total energy, T -> 0          :        -306.71697150 Ha       -8346.19344413 eV  <-- do not rely on this value for anything but (periodic) metals
  | Electronic free energy        :        -306.71707517 Ha       -8346.19626508 eV

  Derived energy quantities:
  | Kinetic energy                :         307.17714721 Ha        8358.71546231 eV
  | Electrostatic energy          :        -576.49036018 Ha      -15687.10085137 eV
  | Energy correction for multipole
  | error in Hartree potential    :           0.00045977 Ha           0.01251085 eV
  | Sum of eigenvalues per atom                           :        -353.20169237 eV
  | Total energy (T->0) per atom                          :        -642.01488032 eV  <-- do not rely on this value for anything but (periodic) metals
  | Electronic free energy per atom                       :        -642.01509731 eV

  Self-consistency convergence accuracy:
  | Change of charge density      : 0.4186E+00
  | Change of sum of eigenvalues  : 0.1026E+03 eV
  | Change of total energy        : 0.2649E+01 eV

  End self-consistency iteration #     2       :  max(cpu_time)    wall_clock(cpu1)
  | Time for this iteration                    :        1.456 s           1.456 s
  | Charge density update                      :        0.472 s           0.472 s
  | Density mixing                             :        0.005 s           0.005 s
  | Hartree multipole update                   :        0.005 s           0.004 s
  | Hartree multipole summation                :        0.242 s           0.242 s
  | Integration                                :        0.696 s           0.695 s
  | Solution of K.-S. eqns.                    :        0.036 s           0.036 s
  | Total energy evaluation                    :        0.000 s           0.000 s
------------------------------------------------------------

------------------------------------------------------------
          Begin self-consistency iteration #    3

  Date     :  20150727, Time     :  121850.614
------------------------------------------------------------
  Evaluating new KS density.
  Integration grid: deviation in total charge (<rho> - N_e) =  -2.167297E-10
  Pulay mixing of updated and previous charge densities.

  Evaluating partitioned Hartree potential by multipole expansion.
  | Analytical far-field extrapolation by fixed multipoles:
  | Hartree multipole sum: apparent total charge =  -0.509737E-05
  Summing up the Hartree potential.
  Time summed over all CPUs for potential: real work        1.922 s, elapsed        1.932 s
  | RMS charge density error from multipole expansion :   0.124192E-01

  Integrating Hamiltonian matrix: batch-based integration.
  Time summed over all CPUs for integration: real work        5.359 s, elapsed        5.537 s

  Updating Kohn-Sham eigenvalues, eigenvectors, occupation numbers, and Fermi level.
  Solving generalized eigenproblem
  Updating Kohn-Sham eigenvalues and eigenfunctions.
  Solving real generalised eigenvalue problem by standard LAPACK (fast)
  Determining occupation numbers for Kohn-Sham eigenstates.
  | Chemical potential (Fermi level) in eV                 : -.20512859E+01
  | Error in electron count due to remaining E_F inaccuracy: -.76745721E-10
  | Maximum occupation number of highest empty state:  0.00E+00

  Highest occupied state (VBM) at     -8.09931414 eV
  | Occupation number:      2.00000000

  Lowest unoccupied state (CBM) at    -2.05128590 eV
  | Occupation number:      1.00000000

  Overall HOMO-LUMO gap:      6.04802824 eV.

  Total energy components:
  | Sum of eigenvalues            :        -169.04773300 Ha       -4600.02286150 eV
  | XC energy correction          :         -37.39826296 Ha       -1017.65851317 eV
  | XC potential correction       :          47.80726664 Ha        1300.90191437 eV
  | Free-atom electrostatic energy:        -143.03269640 Ha       -3892.11769791 eV
  | Hartree energy correction     :          -5.04577458 Ha        -137.30251218 eV
  | van der Waals energy corr.    :           0.00000000 Ha           0.00000000 eV
  | Entropy correction            :          -0.00010367 Ha          -0.00282095 eV
  | ---------------------------
  | Total energy                  :        -306.71720031 Ha       -8346.19967039 eV
  | Total energy, T -> 0          :        -306.71730398 Ha       -8346.20249134 eV  <-- do not rely on this value for anything but (periodic) metals
  | Electronic free energy        :        -306.71740765 Ha       -8346.20531229 eV

  Derived energy quantities:
  | Kinetic energy                :         305.73410459 Ha        8319.44827467 eV
  | Electrostatic energy          :        -575.05304193 Ha      -15647.98943189 eV
  | Energy correction for multipole
  | error in Hartree potential    :          -0.00346824 Ha          -0.09437564 eV
  | Sum of eigenvalues per atom                           :        -353.84791242 eV
  | Total energy (T->0) per atom                          :        -642.01557626 eV  <-- do not rely on this value for anything but (periodic) metals
  | Electronic free energy per atom                       :        -642.01579325 eV

  Self-consistency convergence accuracy:
  | Change of charge density      : 0.2074E+00
  | Change of sum of eigenvalues  : -.8401E+01 eV
  | Change of total energy        : -.9047E-02 eV

  End self-consistency iteration #     3       :  max(cpu_time)    wall_clock(cpu1)
  | Time for this iteration                    :        1.454 s           1.453 s
  | Charge density update                      :        0.472 s           0.471 s
  | Density mixing                             :        0.006 s           0.006 s
  | Hartree multipole update                   :        0.004 s           0.005 s
  | Hartree multipole summation                :        0.242 s           0.242 s
  | Integration                                :        0.693 s           0.693 s
  | Solution of K.-S. eqns.                    :        0.035 s           0.036 s
  | Total energy evaluation                    :        0.000 s           0.000 s
------------------------------------------------------------

------------------------------------------------------------
          Begin self-consistency iteration #    4

  Date     :  20150727, Time     :  121852.067
------------------------------------------------------------
  Evaluating new KS density.
  Integration grid: deviation in total charge (<rho> - N_e) =  -7.673151E-11
  Pulay mixing of updated and previous charge densities.

  Evaluating partitioned Hartree potential by multipole expansion.
  | Analytical far-field extrapolation by fixed multipoles:
  | Hartree multipole sum: apparent total charge =  -0.615663E-05
  Summing up the Hartree potential.
  Time summed over all CPUs for potential: real work        1.921 s, elapsed        1.932 s
  | RMS charge density error from multipole expansion :   0.152173E-01

  Integrating Hamiltonian matrix: batch-based integration.
  Time summed over all CPUs for integration: real work        5.348 s, elapsed        5.532 s

  Updating Kohn-Sham eigenvalues, eigenvectors, occupation numbers, and Fermi level.
  Solving generalized eigenproblem
  Updating Kohn-Sham eigenvalues and eigenfunctions.
  Solving real generalised eigenvalue problem by standard LAPACK (fast)
  Determining occupation numbers for Kohn-Sham eigenstates.
  | Chemical potential (Fermi level) in eV                 : -.19242771E+01
  | Error in electron count due to remaining E_F inaccuracy: -.99276036E-08
  | Maximum occupation number of highest empty state:  0.00E+00

  Highest occupied state (VBM) at     -7.52675148 eV
  | Occupation number:      2.00000000

  Lowest unoccupied state (CBM) at    -1.92427713 eV
  | Occupation number:      0.99999999

  Overall HOMO-LUMO gap:      5.60247436 eV.

  Total energy components:
  | Sum of eigenvalues            :        -168.20264851 Ha       -4577.02694260 eV
  | XC energy correction          :         -37.51095374 Ha       -1020.72498511 eV
  | XC potential correction       :          47.95221082 Ha        1304.84604626 eV
  | Free-atom electrostatic energy:        -143.03269640 Ha       -3892.11769791 eV
  | Hartree energy correction     :          -5.91943830 Ha        -161.07611163 eV
  | van der Waals energy corr.    :           0.00000000 Ha           0.00000000 eV
  | Entropy correction            :          -0.00010367 Ha          -0.00282095 eV
  | ---------------------------
  | Total energy                  :        -306.71352613 Ha       -8346.09969098 eV
  | Total energy, T -> 0          :        -306.71362980 Ha       -8346.10251193 eV  <-- do not rely on this value for anything but (periodic) metals
  | Electronic free energy        :        -306.71373347 Ha       -8346.10533288 eV

  Derived energy quantities:
  | Kinetic energy                :         305.86190737 Ha        8322.92596533 eV
  | Electrostatic energy          :        -575.06447977 Ha      -15648.30067121 eV
  | Energy correction for multipole
  | error in Hartree potential    :          -0.00452093 Ha          -0.12302084 eV
  | Sum of eigenvalues per atom                           :        -352.07899558 eV
  | Total energy (T->0) per atom                          :        -642.00788553 eV  <-- do not rely on this value for anything but (periodic) metals
  | Electronic free energy per atom                       :        -642.00810253 eV

  Self-consistency convergence accuracy:
  | Change of charge density      : 0.9041E-01
  | Change of sum of eigenvalues  : 0.2300E+02 eV
  | Change of total energy        : 0.9998E-01 eV

  End self-consistency iteration #     4       :  max(cpu_time)    wall_clock(cpu1)
  | Time for this iteration                    :        1.455 s           1.455 s
  | Charge density update                      :        0.472 s           0.472 s
  | Density mixing                             :        0.007 s           0.007 s
  | Hartree multipole update                   :        0.004 s           0.005 s
  | Hartree multipole summation                :        0.243 s           0.242 s
  | Integration                                :        0.692 s           0.693 s
  | Solution of K.-S. eqns.                    :        0.035 s           0.035 s
  | Total energy evaluation                    :        0.001 s           0.000 s
------------------------------------------------------------

------------------------------------------------------------
          Begin self-consistency iteration #    5

  Date     :  20150727, Time     :  121853.522
------------------------------------------------------------
  Evaluating new KS density.
  Integration grid: deviation in total charge (<rho> - N_e) =  -9.927575E-09
  Pulay mixing of updated and previous charge densities.

  Evaluating partitioned Hartree potential by multipole expansion.
  | Analytical far-field extrapolation by fixed multipoles:
  | Hartree multipole sum: apparent total charge =  -0.621343E-05
  Summing up the Hartree potential.
  Time summed over all CPUs for potential: real work        1.921 s, elapsed        1.932 s
  | RMS charge density error from multipole expansion :   0.154173E-01

  Integrating Hamiltonian matrix: batch-based integration.
  Time summed over all CPUs for integration: real work        5.347 s, elapsed        5.537 s

  Updating Kohn-Sham eigenvalues, eigenvectors, occupation numbers, and Fermi level.
  Solving generalized eigenproblem
  Updating Kohn-Sham eigenvalues and eigenfunctions.
  Solving real generalised eigenvalue problem by standard LAPACK (fast)
  Determining occupation numbers for Kohn-Sham eigenstates.
  | Chemical potential (Fermi level) in eV                 : -.19070427E+01
  | Error in electron count due to remaining E_F inaccuracy: -.62967729E-08
  | Maximum occupation number of highest empty state:  0.00E+00

  Highest occupied state (VBM) at     -7.59029632 eV
  | Occupation number:      2.00000000

  Lowest unoccupied state (CBM) at    -1.90704267 eV
  | Occupation number:      0.99999999

  Overall HOMO-LUMO gap:      5.68325365 eV.

  Total energy components:
  | Sum of eigenvalues            :        -168.23104969 Ha       -4577.79977794 eV
  | XC energy correction          :         -37.50805427 Ha       -1020.64608666 eV
  | XC potential correction       :          47.94819052 Ha        1304.73664844 eV
  | Free-atom electrostatic energy:        -143.03269640 Ha       -3892.11769791 eV
  | Hartree energy correction     :          -5.88955669 Ha        -160.26299168 eV
  | van der Waals energy corr.    :           0.00000000 Ha           0.00000000 eV
  | Entropy correction            :          -0.00010367 Ha          -0.00282095 eV
  | ---------------------------
  | Total energy                  :        -306.71316653 Ha       -8346.08990575 eV
  | Total energy, T -> 0          :        -306.71327020 Ha       -8346.09272670 eV  <-- do not rely on this value for anything but (periodic) metals
  | Electronic free energy        :        -306.71337387 Ha       -8346.09554764 eV

  Derived energy quantities:
  | Kinetic energy                :         305.84242708 Ha        8322.39587960 eV
  | Electrostatic energy          :        -575.04753934 Ha      -15647.83969869 eV
  | Energy correction for multipole
  | error in Hartree potential    :          -0.00474314 Ha          -0.12906728 eV
  | Sum of eigenvalues per atom                           :        -352.13844446 eV
  | Total energy (T->0) per atom                          :        -642.00713282 eV  <-- do not rely on this value for anything but (periodic) metals
  | Electronic free energy per atom                       :        -642.00734982 eV

  Self-consistency convergence accuracy:
  | Change of charge density      : 0.2275E-01
  | Change of sum of eigenvalues  : -.7728E+00 eV
  | Change of total energy        : 0.9785E-02 eV

  End self-consistency iteration #     5       :  max(cpu_time)    wall_clock(cpu1)
  | Time for this iteration                    :        1.456 s           1.456 s
  | Charge density update                      :        0.472 s           0.472 s
  | Density mixing                             :        0.008 s           0.008 s
  | Hartree multipole update                   :        0.005 s           0.005 s
  | Hartree multipole summation                :        0.242 s           0.242 s
  | Integration                                :        0.693 s           0.693 s
  | Solution of K.-S. eqns.                    :        0.036 s           0.036 s
  | Total energy evaluation                    :        0.000 s           0.000 s
------------------------------------------------------------

------------------------------------------------------------
          Begin self-consistency iteration #    6

  Date     :  20150727, Time     :  121854.978
------------------------------------------------------------
  Evaluating new KS density.
  Integration grid: deviation in total charge (<rho> - N_e) =  -6.296808E-09
  Pulay mixing of updated and previous charge densities.

  Evaluating partitioned Hartree potential by multipole expansion.
  | Analytical far-field extrapolation by fixed multipoles:
  | Hartree multipole sum: apparent total charge =  -0.635912E-05
  Summing up the Hartree potential.
  Time summed over all CPUs for potential: real work        1.921 s, elapsed        1.932 s
  | RMS charge density error from multipole expansion :   0.157808E-01

  Integrating Hamiltonian matrix: batch-based integration.
  Time summed over all CPUs for integration: real work        5.348 s, elapsed        5.534 s

  Updating Kohn-Sham eigenvalues, eigenvectors, occupation numbers, and Fermi level.
  Solving generalized eigenproblem
  Updating Kohn-Sham eigenvalues and eigenfunctions.
  Solving real generalised eigenvalue problem by standard LAPACK (fast)
  Determining occupation numbers for Kohn-Sham eigenstates.
  | Chemical potential (Fermi level) in eV                 : -.19113151E+01
  | Error in electron count due to remaining E_F inaccuracy: -.28236471E-08
  | Maximum occupation number of highest empty state:  0.00E+00

  Highest occupied state (VBM) at     -7.55094608 eV
  | Occupation number:      2.00000000

  Lowest unoccupied state (CBM) at    -1.91131514 eV
  | Occupation number:      1.00000000

  Overall HOMO-LUMO gap:      5.63963094 eV.

  Total energy components:
  | Sum of eigenvalues            :        -168.21140249 Ha       -4577.26515045 eV
  | XC energy correction          :         -37.51319324 Ha       -1020.78592519 eV
  | XC potential correction       :          47.95448530 Ha        1304.90793801 eV
  | Free-atom electrostatic energy:        -143.03269640 Ha       -3892.11769791 eV
  | Hartree energy correction     :          -5.91038422 Ha        -160.82973749 eV
  | van der Waals energy corr.    :           0.00000000 Ha           0.00000000 eV
  | Entropy correction            :          -0.00010367 Ha          -0.00282095 eV
  | ---------------------------
  | Total energy                  :        -306.71319105 Ha       -8346.09057302 eV
  | Total energy, T -> 0          :        -306.71329472 Ha       -8346.09339396 eV  <-- do not rely on this value for anything but (periodic) metals
  | Electronic free energy        :        -306.71339839 Ha       -8346.09621491 eV

  Derived energy quantities:
  | Kinetic energy                :         305.83066146 Ha        8322.07572092 eV
  | Electrostatic energy          :        -575.03065927 Ha      -15647.38036875 eV
  | Energy correction for multipole
  | error in Hartree potential    :          -0.00501581 Ha          -0.13648720 eV
  | Sum of eigenvalues per atom                           :        -352.09731927 eV
  | Total energy (T->0) per atom                          :        -642.00718415 eV  <-- do not rely on this value for anything but (periodic) metals
  | Electronic free energy per atom                       :        -642.00740115 eV

  Self-consistency convergence accuracy:
  | Change of charge density      : 0.1049E-01
  | Change of sum of eigenvalues  : 0.5346E+00 eV
  | Change of total energy        : -.6673E-03 eV

  End self-consistency iteration #     6       :  max(cpu_time)    wall_clock(cpu1)
  | Time for this iteration                    :        1.454 s           1.455 s
  | Charge density update                      :        0.469 s           0.469 s
  | Density mixing                             :        0.009 s           0.009 s
  | Hartree multipole update                   :        0.005 s           0.004 s
  | Hartree multipole summation                :        0.242 s           0.243 s
  | Integration                                :        0.693 s           0.692 s
  | Solution of K.-S. eqns.                    :        0.035 s           0.036 s
  | Total energy evaluation                    :        0.000 s           0.000 s
------------------------------------------------------------

------------------------------------------------------------
          Begin self-consistency iteration #    7

  Date     :  20150727, Time     :  121856.433
------------------------------------------------------------
  Evaluating new KS density.
  Integration grid: deviation in total charge (<rho> - N_e) =  -2.823661E-09
  Pulay mixing of updated and previous charge densities.

  Evaluating partitioned Hartree potential by multipole expansion.
  | Analytical far-field extrapolation by fixed multipoles:
  | Hartree multipole sum: apparent total charge =  -0.638143E-05
  Summing up the Hartree potential.
  Time summed over all CPUs for potential: real work        1.922 s, elapsed        1.932 s
  | RMS charge density error from multipole expansion :   0.157749E-01

  Integrating Hamiltonian matrix: batch-based integration.
  Time summed over all CPUs for integration: real work        5.343 s, elapsed        5.533 s

  Updating Kohn-Sham eigenvalues, eigenvectors, occupation numbers, and Fermi level.
  Solving generalized eigenproblem
  Updating Kohn-Sham eigenvalues and eigenfunctions.
  Solving real generalised eigenvalue problem by standard LAPACK (fast)
  Determining occupation numbers for Kohn-Sham eigenstates.
  | Chemical potential (Fermi level) in eV                 : -.19188016E+01
  | Error in electron count due to remaining E_F inaccuracy: -.87336360E-08
  | Maximum occupation number of highest empty state:  0.00E+00

  Highest occupied state (VBM) at     -7.55295119 eV
  | Occupation number:      2.00000000

  Lowest unoccupied state (CBM) at    -1.91880161 eV
  | Occupation number:      0.99999999

  Overall HOMO-LUMO gap:      5.63414957 eV.

  Total energy components:
  | Sum of eigenvalues            :        -168.22413962 Ha       -4577.61174537 eV
  | XC energy correction          :         -37.51200639 Ha       -1020.75362916 eV
  | XC potential correction       :          47.95287943 Ha        1304.86424008 eV
  | Free-atom electrostatic energy:        -143.03269640 Ha       -3892.11769791 eV
  | Hartree energy correction     :          -5.89721896 Ha        -160.47149252 eV
  | van der Waals energy corr.    :           0.00000000 Ha           0.00000000 eV
  | Entropy correction            :          -0.00010367 Ha          -0.00282095 eV
  | ---------------------------
  | Total energy                  :        -306.71318194 Ha       -8346.09032487 eV
  | Total energy, T -> 0          :        -306.71328560 Ha       -8346.09314582 eV  <-- do not rely on this value for anything but (periodic) metals
  | Electronic free energy        :        -306.71338927 Ha       -8346.09596677 eV

  Derived energy quantities:
  | Kinetic energy                :         305.84841644 Ha        8322.55885859 eV
  | Electrostatic energy          :        -575.04959199 Ha      -15647.89555430 eV
  | Energy correction for multipole
  | error in Hartree potential    :          -0.00506972 Ha          -0.13795422 eV
  | Sum of eigenvalues per atom                           :        -352.12398041 eV
  | Total energy (T->0) per atom                          :        -642.00716506 eV  <-- do not rely on this value for anything but (periodic) metals
  | Electronic free energy per atom                       :        -642.00738206 eV

  Self-consistency convergence accuracy:
  | Change of charge density      : 0.5677E-02
  | Change of sum of eigenvalues  : -.3466E+00 eV
  | Change of total energy        : 0.2481E-03 eV

  End self-consistency iteration #     7       :  max(cpu_time)    wall_clock(cpu1)
  | Time for this iteration                    :        1.456 s           1.455 s
  | Charge density update                      :        0.470 s           0.469 s
  | Density mixing                             :        0.010 s           0.011 s
  | Hartree multipole update                   :        0.005 s           0.004 s
  | Hartree multipole summation                :        0.242 s           0.242 s
  | Integration                                :        0.693 s           0.693 s
  | Solution of K.-S. eqns.                    :        0.035 s           0.036 s
  | Total energy evaluation                    :        0.000 s           0.000 s
------------------------------------------------------------

------------------------------------------------------------
          Begin self-consistency iteration #    8

  Date     :  20150727, Time     :  121857.888
------------------------------------------------------------
  Evaluating new KS density.
  Integration grid: deviation in total charge (<rho> - N_e) =  -8.733636E-09
  Pulay mixing of updated and previous charge densities.

  Evaluating partitioned Hartree potential by multipole expansion.
  | Analytical far-field extrapolation by fixed multipoles:
  | Hartree multipole sum: apparent total charge =  -0.640515E-05
  Summing up the Hartree potential.
  Time summed over all CPUs for potential: real work        1.921 s, elapsed        1.932 s
  | RMS charge density error from multipole expansion :   0.158410E-01

  Integrating Hamiltonian matrix: batch-based integration.
  Time summed over all CPUs for integration: real work        5.349 s, elapsed        5.543 s

  Updating Kohn-Sham eigenvalues, eigenvectors, occupation numbers, and Fermi level.
  Solving generalized eigenproblem
  Updating Kohn-Sham eigenvalues and eigenfunctions.
  Solving real generalised eigenvalue problem by standard LAPACK (fast)
  Determining occupation numbers for Kohn-Sham eigenstates.
  | Chemical potential (Fermi level) in eV                 : -.19337387E+01
  | Error in electron count due to remaining E_F inaccuracy: 0.15084822E-10
  | Maximum occupation number of highest empty state:  0.00E+00

  Highest occupied state (VBM) at     -1.93373869 eV
  | Occupation number:      1.00000000

  Lowest unoccupied state (CBM) at    -1.25500995 eV
  | Occupation number:      0.00000000

  Overall HOMO-LUMO gap:      0.67872874 eV.

  Total energy components:
  | Sum of eigenvalues            :        -168.27647907 Ha       -4579.03597437 eV
  | XC energy correction          :         -37.50723854 Ha       -1020.62388931 eV
  | XC potential correction       :          47.94643544 Ha        1304.68889010 eV
  | Free-atom electrostatic energy:        -143.03269640 Ha       -3892.11769791 eV
  | Hartree energy correction     :          -5.84319503 Ha        -159.00142661 eV
  | van der Waals energy corr.    :           0.00000000 Ha           0.00000000 eV
  | Entropy correction            :          -0.00010367 Ha          -0.00282095 eV
  | ---------------------------
  | Total energy                  :        -306.71317360 Ha       -8346.09009809 eV
  | Total energy, T -> 0          :        -306.71327727 Ha       -8346.09291904 eV  <-- do not rely on this value for anything but (periodic) metals
  | Electronic free energy        :        -306.71338094 Ha       -8346.09573999 eV

  Derived energy quantities:
  | Kinetic energy                :         305.86176273 Ha        8322.92202953 eV
  | Electrostatic energy          :        -575.06769780 Ha      -15648.38823831 eV
  | Energy correction for multipole
  | error in Hartree potential    :          -0.00526301 Ha          -0.14321375 eV
  | Sum of eigenvalues per atom                           :        -352.23353649 eV
  | Total energy (T->0) per atom                          :        -642.00714762 eV  <-- do not rely on this value for anything but (periodic) metals
  | Electronic free energy per atom                       :        -642.00736461 eV

  Self-consistency convergence accuracy:
  | Change of charge density      : 0.4186E-02
  | Change of sum of eigenvalues  : -.1424E+01 eV
  | Change of total energy        : 0.2268E-03 eV

  End self-consistency iteration #     8       :  max(cpu_time)    wall_clock(cpu1)
  | Time for this iteration                    :        1.458 s           1.458 s
  | Charge density update                      :        0.469 s           0.470 s
  | Density mixing                             :        0.012 s           0.011 s
  | Hartree multipole update                   :        0.004 s           0.005 s
  | Hartree multipole summation                :        0.243 s           0.242 s
  | Integration                                :        0.694 s           0.694 s
  | Solution of K.-S. eqns.                    :        0.035 s           0.035 s
  | Total energy evaluation                    :        0.001 s           0.000 s
------------------------------------------------------------

------------------------------------------------------------
          Begin self-consistency iteration #    9

  Date     :  20150727, Time     :  121859.346
------------------------------------------------------------
  Evaluating new KS density.
  Integration grid: deviation in total charge (<rho> - N_e) =   1.507772E-11
  Pulay mixing of updated and previous charge densities.

  Evaluating partitioned Hartree potential by multipole expansion.
  | Analytical far-field extrapolation by fixed multipoles:
  | Hartree multipole sum: apparent total charge =  -0.640150E-05
  Summing up the Hartree potential.
  Time summed over all CPUs for potential: real work        1.921 s, elapsed        1.932 s
  | RMS charge density error from multipole expansion :   0.158339E-01

  Integrating Hamiltonian matrix: batch-based integration.
  Time summed over all CPUs for integration: real work        5.356 s, elapsed        5.538 s

  Updating Kohn-Sham eigenvalues, eigenvectors, occupation numbers, and Fermi level.
  Solving generalized eigenproblem
  Updating Kohn-Sham eigenvalues and eigenfunctions.
  Solving real generalised eigenvalue problem by standard LAPACK (fast)
  Determining occupation numbers for Kohn-Sham eigenstates.
  | Chemical potential (Fermi level) in eV                 : -.19364613E+01
  | Error in electron count due to remaining E_F inaccuracy: 0.13167352E-08
  | Maximum occupation number of highest empty state:  0.00E+00

  Highest occupied state (VBM) at     -1.93646125 eV
  | Occupation number:      1.00000000

  Lowest unoccupied state (CBM) at    -1.25619922 eV
  | Occupation number:      0.00000000

  Overall HOMO-LUMO gap:      0.68026203 eV.

  Total energy components:
  | Sum of eigenvalues            :        -168.28363902 Ha       -4579.23080653 eV
  | XC energy correction          :         -37.50660493 Ha       -1020.60664798 eV
  | XC potential correction       :          47.94558905 Ha        1304.66585865 eV
  | Free-atom electrostatic energy:        -143.03269640 Ha       -3892.11769791 eV
  | Hartree energy correction     :          -5.83582112 Ha        -158.80077226 eV
  | van der Waals energy corr.    :           0.00000000 Ha           0.00000000 eV
  | Entropy correction            :          -0.00010367 Ha          -0.00282095 eV
  | ---------------------------
  | Total energy                  :        -306.71317242 Ha       -8346.09006603 eV
  | Total energy, T -> 0          :        -306.71327609 Ha       -8346.09288698 eV  <-- do not rely on this value for anything but (periodic) metals
  | Electronic free energy        :        -306.71337976 Ha       -8346.09570793 eV

  Derived energy quantities:
  | Kinetic energy                :         305.86826556 Ha        8323.09898046 eV
  | Electrostatic energy          :        -575.07483305 Ha      -15648.58239851 eV
  | Energy correction for multipole
  | error in Hartree potential    :          -0.00528313 Ha          -0.14376140 eV
  | Sum of eigenvalues per atom                           :        -352.24852358 eV
  | Total energy (T->0) per atom                          :        -642.00714515 eV  <-- do not rely on this value for anything but (periodic) metals
  | Electronic free energy per atom                       :        -642.00736215 eV

  Self-consistency convergence accuracy:
  | Change of charge density      : 0.1095E-02
  | Change of sum of eigenvalues  : -.1948E+00 eV
  | Change of total energy        : 0.3206E-04 eV

  End self-consistency iteration #     9       :  max(cpu_time)    wall_clock(cpu1)
  | Time for this iteration                    :        1.463 s           1.463 s
  | Charge density update                      :        0.474 s           0.474 s
  | Density mixing                             :        0.013 s           0.013 s
  | Hartree multipole update                   :        0.004 s           0.004 s
  | Hartree multipole summation                :        0.243 s           0.243 s
  | Integration                                :        0.693 s           0.693 s
  | Solution of K.-S. eqns.                    :        0.036 s           0.036 s
  | Total energy evaluation                    :        0.000 s           0.000 s
------------------------------------------------------------

------------------------------------------------------------
          Begin self-consistency iteration #   10

  Date     :  20150727, Time     :  121900.809
------------------------------------------------------------
  Evaluating new KS density.
  Integration grid: deviation in total charge (<rho> - N_e) =   1.316721E-09
[...]
  | Electronic free energy        :        -306.71545288 Ha       -8346.15212038 eV

  Derived energy quantities:
  | Kinetic energy                :         305.87013803 Ha        8323.14993313 eV
  | Electrostatic energy          :        -575.07647160 Ha      -15648.62698563 eV
  | Energy correction for multipole
  | error in Hartree potential    :          -0.00530477 Ha          -0.14435013 eV
  | Sum of eigenvalues per atom                           :        -352.24709993 eV
  | Total energy (T->0) per atom                          :        -642.01148457 eV  <-- do not rely on this value for anything but (periodic) metals
  | Electronic free energy per atom                       :        -642.01170157 eV

  atomic forces [eV/Ang]:
  -----------------------
  atom #    1
   Hellmann-Feynman + Multipole  : -.293265E+01 -.742336E+01 -.782231E+01
   Pulay + GGA                   : 0.156282E+01 0.892200E+01 0.605207E+01
   Van der Waals               : -.468920E-02 0.339645E-03 -.619870E-02
   ----------------------------------------------------------------
   Total forces(   1)            : -.137453E+01 0.149898E+01 -.177644E+01
  atom #    2
   Hellmann-Feynman + Multipole  : 0.893212E+00 -.168377E+01 0.715071E+00
   Pulay + GGA                   : -.738331E-01 0.146907E+00 -.261229E-01
   Van der Waals               : -.226059E-02 0.189906E-02 -.210318E-02
   ----------------------------------------------------------------
   Total forces(   2)            : 0.817118E+00 -.153496E+01 0.686844E+00
  atom #    3
   Hellmann-Feynman + Multipole  : 0.526779E+00 0.308100E-01 -.943779E-01
   Pulay + GGA                   : 0.825897E-01 0.103538E-01 0.169183E-01
   Van der Waals               : 0.396880E-03 0.111938E-02 -.647317E-03
   ----------------------------------------------------------------
   Total forces(   3)            : 0.609765E+00 0.422832E-01 -.781069E-01
  atom #    4
   Hellmann-Feynman + Multipole  : -.169497E+00 -.101348E+00 0.929381E+00
   Pulay + GGA                   : -.429350E-01 -.113249E-01 0.726106E-01
   Van der Waals               : -.394261E-02 -.350999E-03 0.292653E-02
   ----------------------------------------------------------------
   Total forces(   4)            : -.216374E+00 -.113024E+00 0.100492E+01
  atom #    5
   Hellmann-Feynman + Multipole  : 0.714501E+01 -.509943E+01 -.756894E+01
   Pulay + GGA                   : -.781357E+01 0.288374E+01 0.611864E+01
   Van der Waals               : 0.162761E-02 -.667142E-02 -.152280E-02
   ----------------------------------------------------------------
   Total forces(   5)            : -.666929E+00 -.222236E+01 -.145182E+01
  atom #    6
   Hellmann-Feynman + Multipole  : 0.116660E+00 0.150778E+01 0.122564E+01
   Pulay + GGA                   : 0.966635E-02 0.489394E-01 0.804381E-01
   Van der Waals               : 0.174205E-02 0.464922E-03 0.501609E-02
   ----------------------------------------------------------------
   Total forces(   6)            : 0.128069E+00 0.155718E+01 0.131109E+01
  atom #    7
   Hellmann-Feynman + Multipole  : 0.484485E+00 0.552065E+00 0.110388E+00
   Pulay + GGA                   : -.103866E+00 -.566881E-01 0.469262E-01
   Van der Waals               : 0.148061E-03 0.385920E-03 0.237540E-02
   ----------------------------------------------------------------
   Total forces(   7)            : 0.380767E+00 0.495763E+00 0.159689E+00
  atom #    8
   Hellmann-Feynman + Multipole  : -.471150E+01 0.185943E+01 -.989237E+01
   Pulay + GGA                   : 0.626450E+01 -.182523E+01 0.109514E+02
   Van der Waals               : 0.836061E-03 0.921890E-03 0.427258E-02
   ----------------------------------------------------------------
   Total forces(   8)            : 0.155383E+01 0.351239E-01 0.106333E+01
  atom #    9
   Hellmann-Feynman + Multipole  : -.171689E+00 -.547594E+00 -.830533E+00
   Pulay + GGA                   : 0.275270E-01 0.872185E-01 0.962443E-01
   Van der Waals               : 0.134449E-02 0.220530E-02 0.654730E-02
   ----------------------------------------------------------------
   Total forces(   9)            : -.142818E+00 -.458170E+00 -.727741E+00
  atom #   10
   Hellmann-Feynman + Multipole  : -.129020E+01 0.691052E+00 -.280852E+00
   Pulay + GGA                   : 0.118181E+00 -.790310E-01 0.201109E-01
   Van der Waals               : -.550876E-03 0.393164E-03 0.187124E-02
   ----------------------------------------------------------------
   Total forces(  10)            : -.117257E+01 0.612414E+00 -.258870E+00
  atom #   11
   Hellmann-Feynman + Multipole  : 0.759821E+01 -.435055E+01 -.916686E+01
   Pulay + GGA                   : -.868608E+01 0.559251E+01 0.105214E+02
   Van der Waals               : 0.365889E-02 0.213843E-03 -.719245E-02
   ----------------------------------------------------------------
   Total forces(  11)            : -.108421E+01 0.124218E+01 0.134733E+01
  atom #   12
   Hellmann-Feynman + Multipole  : -.358897E+00 0.305664E+00 -.185027E+01
   Pulay + GGA                   : 0.293810E-01 -.110259E-02 0.140925E+00
   Van der Waals               : 0.372183E-03 -.135312E-03 -.150416E-02
   ----------------------------------------------------------------
   Total forces(  12)            : -.329144E+00 0.304426E+00 -.171085E+01
  atom #   13
   Hellmann-Feynman + Multipole  : 0.159686E+01 -.156770E+01 0.473978E+00
   Pulay + GGA                   : -.997344E-01 0.107388E+00 -.341255E-01
   Van der Waals               : 0.131705E-02 -.785384E-03 -.384053E-02
   ----------------------------------------------------------------
   Total forces(  13)            : 0.149844E+01 -.146110E+01 0.436012E+00
  Timings for vdw_correction_hirshfeld (Tkatchenko-Scheffler 2009):
  | CPU time:        3.906 s, Wall clock time:        3.909 s.
  Removing unitary transformations (pure translations, rotations) from forces on atoms.
  Atomic forces before filtering:
  | Net force on center of mass :  0.142096E-02 -.126015E-02 0.537909E-02 eV/A
  | Net torque on center of mass:  0.263460E-01 0.286270E-02 -.616319E-03 eV
  Atomic forces after filtering:
  | Net force on center of mass :  0.892031E-15 0.535218E-15 -.892031E-16 eV/A
  | Net torque on center of mass:  -.755268E-15 0.330430E-15 0.755268E-15 eV
 
  Energy and forces in a compact form:
  | Total energy uncorrected      :         -0.834614647848290E+04 eV
  | Total energy corrected        :         -0.834614929943082E+04 eV  <-- do not rely on this value for anything but (periodic) metals
  | Electronic free energy        :         -0.834615212037873E+04 eV
  Total atomic forces (unitary forces cleaned) [eV/Ang]:
  |   1         -0.137440896158129E+01          0.149796724870203E+01         -0.177644125818481E+01
  |   2          0.817045521416822E+00         -0.153632061204767E+01          0.686279186795857E+00
  |   3          0.609820768837586E+00          0.415199208531476E-01         -0.782299968201315E-01
  |   4         -0.216268601523853E+00         -0.113539369486293E+00          0.100497145131357E+01
  |   5         -0.666834443618323E+00         -0.222201711197941E+01         -0.145165385654072E+01
  |   6          0.127978015381621E+00          0.155791157840543E+01          0.131083429555220E+01
  |   7          0.380955936835373E+00          0.496091662300664E+00          0.160107313614779E+00
  |   8          0.155376740062408E+01          0.346649754104661E-01          0.106293962532709E+01
  |   9         -0.143054416909934E+00         -0.458145704193317E+00         -0.728505797875140E+00
  |  10         -0.117250607020222E+01          0.612213852787002E+00         -0.258878093983892E+00
  |  11         -0.108468046020850E+01          0.124343242236321E+01          0.134616377502213E+01
  |  12         -0.329634400205726E+00          0.306315085327285E+00         -0.171197393476646E+01
  |  13          0.149781971115436E+01         -0.146009394844254E+01          0.434387290545532E+00
 
  ------------------------------------ 
  Start decomposition of the XC Energy 
  ------------------------------------ 
  Hartree-Fock part   :          0.000000000 Ha              0.000000000 eV
  ------------------------------------ 
  X Energy            :        -36.176782924 Ha           -984.420350109 eV
  C Energy GGA        :         -1.330056181 Ha            -36.192670149 eV
  Total XC Energy     :        -37.506839105 Ha          -1020.613020259 eV
  LDA X and C from self-consistent density 
  X Energy LDA        :        -32.610165350 Ha           -887.367747960 eV
  C Energy LDA        :         -2.676669035 Ha            -72.835870297 eV
  ------------------------------------ 
  End decomposition of the XC Energy 
  ------------------------------------ 
  Performing Hirshfeld analysis of fragment charges and moments.
  ----------------------------------------------------------------------
  | Atom     1: O
  |   Hirshfeld charge        :     -0.14001290
  |   Free atom volume        :     23.95238533
  |   Hirshfeld volume        :     22.50924758
  |   Hirshfeld dipole vector :      0.01914010       0.01412282       0.03204831
  |   Hirshfeld dipole moment :      0.03991105
  |   Hirshfeld second moments:      0.06171365      -0.00548549      -0.01018415
  |                                 -0.00548549       0.02678075      -0.02563905
  |                                 -0.01018415      -0.02563905       0.04526590
  ----------------------------------------------------------------------
  | Atom     2: H
  |   Hirshfeld charge        :      0.04372706
  |   Free atom volume        :     10.44207651
  |   Hirshfeld volume        :     16.36338627
  |   Hirshfeld dipole vector :      0.03424680      -0.04700133       0.01783829
  |   Hirshfeld dipole moment :      0.06082905
  |   Hirshfeld second moments:     -0.06587052       0.03529149      -0.01584284
  |                                  0.03529149      -0.12744740       0.01078276
  |                                 -0.01584284       0.01078276      -0.05285876
  ----------------------------------------------------------------------
  | Atom     3: H
  |   Hirshfeld charge        :      0.09749341
  |   Free atom volume        :     10.44207651
  |   Hirshfeld volume        :     10.21592019
  |   Hirshfeld dipole vector :      0.02191767      -0.00536198       0.01167619
  |   Hirshfeld dipole moment :      0.02540607
  |   Hirshfeld second moments:      0.01484595      -0.01046894      -0.00488563
  |                                 -0.01046894       0.03589039       0.00625384
  |                                 -0.00488563       0.00625384       0.05207492
  ----------------------------------------------------------------------
  | Atom     4: H
  |   Hirshfeld charge        :      0.09767307
  |   Free atom volume        :     10.44207651
  |   Hirshfeld volume        :     10.24481772
  |   Hirshfeld dipole vector :     -0.00171514      -0.00958584       0.02203334
  |   Hirshfeld dipole moment :      0.02408937
  |   Hirshfeld second moments:      0.04803361       0.01510882       0.00319817
  |                                  0.01510882       0.04176578       0.00575458
  |                                  0.00319817       0.00575458       0.01119189
  ----------------------------------------------------------------------
  | Atom     5: O
  |   Hirshfeld charge        :     -0.24072158
  |   Free atom volume        :     23.95238533
  |   Hirshfeld volume        :     22.17733529
  |   Hirshfeld dipole vector :     -0.01998069       0.02052451      -0.00152328
  |   Hirshfeld dipole moment :      0.02868456
  |   Hirshfeld second moments:      0.02560192       0.04946741      -0.01496246
  |                                  0.04946741       0.02376630       0.01158962
  |                                 -0.01496246       0.01158962       0.04930476
  ----------------------------------------------------------------------
  | Atom     6: H
  |   Hirshfeld charge        :      0.08332700
  |   Free atom volume        :     10.44207651
  |   Hirshfeld volume        :      9.86891109
  |   Hirshfeld dipole vector :      0.01274763       0.02285571       0.02771907
  |   Hirshfeld dipole moment :      0.03812129
  |   Hirshfeld second moments:      0.04084297       0.00580572      -0.01030928
  |                                  0.00580572       0.01871274      -0.01197265
  |                                 -0.01030928      -0.01197265       0.05218833
  ----------------------------------------------------------------------
  | Atom     7: H
  |   Hirshfeld charge        :      0.12679122
  |   Free atom volume        :     10.44207651
  |   Hirshfeld volume        :      9.98592903
  |   Hirshfeld dipole vector :     -0.06475350      -0.04985212       0.02104997
  |   Hirshfeld dipole moment :      0.08438810
  |   Hirshfeld second moments:      0.03629176       0.01668911      -0.00358367
  |                                  0.01668911       0.05390125       0.01165533
  |                                 -0.00358367       0.01165533       0.06186119
  ----------------------------------------------------------------------
  | Atom     8: O
  |   Hirshfeld charge        :     -0.22117128
  |   Free atom volume        :     23.95238533
  |   Hirshfeld volume        :     22.90640821
  |   Hirshfeld dipole vector :     -0.00961438      -0.02816873       0.03499286
  |   Hirshfeld dipole moment :      0.04593924
  |   Hirshfeld second moments:      0.04355577      -0.01182997       0.00442352
  |                                 -0.01182997       0.02278342       0.04535410
  |                                  0.00442352       0.04535410      -0.01035976
  ----------------------------------------------------------------------
  | Atom     9: H
  |   Hirshfeld charge        :      0.10184565
  |   Free atom volume        :     10.44207651
  |   Hirshfeld volume        :     11.39873506
  |   Hirshfeld dipole vector :      0.00462900       0.02636532       0.04970422
  |   Hirshfeld dipole moment :      0.05645412
  |   Hirshfeld second moments:      0.03864240       0.01080373      -0.00829293
  |                                  0.01080373       0.01543428       0.00381485
  |                                 -0.00829293       0.00381485       0.00183481
  ----------------------------------------------------------------------
  | Atom    10: H
  |   Hirshfeld charge        :      0.11259044
  |   Free atom volume        :     10.44207651
  |   Hirshfeld volume        :     10.89842556
  |   Hirshfeld dipole vector :      0.04844179      -0.04541477       0.00267094
  |   Hirshfeld dipole moment :      0.06645481
  |   Hirshfeld second moments:      0.02969679       0.00470015      -0.00525579
  |                                  0.00470015       0.03578590       0.02209413
  |                                 -0.00525579       0.02209413       0.02746775
  ----------------------------------------------------------------------
  | Atom    11: O
  |   Hirshfeld charge        :     -0.25947900
  |   Free atom volume        :     23.95238533
  |   Hirshfeld volume        :     23.43004542
  |   Hirshfeld dipole vector :     -0.04228359      -0.02020205       0.02594060
  |   Hirshfeld dipole moment :      0.05356249
  |   Hirshfeld second moments:     -0.03758270      -0.03578480       0.03454876
  |                                 -0.03578480       0.01099079       0.00447159
  |                                  0.03454876       0.00447159       0.01836117
  ----------------------------------------------------------------------
  | Atom    12: H
  |   Hirshfeld charge        :      0.10683578
  |   Free atom volume        :     10.44207651
  |   Hirshfeld volume        :     10.48255899
  |   Hirshfeld dipole vector :      0.01509186      -0.01993789       0.07827834
  |   Hirshfeld dipole moment :      0.08217532
  |   Hirshfeld second moments:      0.02663517      -0.01532658       0.02021572
  |                                 -0.01532658       0.04757415       0.00081260
  |                                  0.02021572       0.00081260       0.03710352
  ----------------------------------------------------------------------
  | Atom    13: H
  |   Hirshfeld charge        :      0.09110693
  |   Free atom volume        :     10.44207651
  |   Hirshfeld volume        :     12.23562639
  |   Hirshfeld dipole vector :     -0.04537130       0.03830191       0.00194198
  |   Hirshfeld dipole moment :      0.05940844
  |   Hirshfeld second moments:     -0.01201783      -0.00687899       0.00393742
  |                                 -0.00687899       0.02218752       0.01103197
  |                                  0.00393742       0.01103197       0.00063774
  ----------------------------------------------------------------------


------------------------------------------------------------------------------
  Final output of selected total energy values:

  The following output summarizes some interesting total energy values
  at the end of a run (AFTER all relaxation, molecular dynamics, etc.).

  | Total energy of the DFT / Hartree-Fock s.c.f. calculation      :          -8346.146478483 eV
  | Final zero-broadening corrected energy (caution - metals only) :          -8346.149299431 eV
  | For reference only, the value of 1 Hartree used in FHI-aims is :             27.211384500 eV

  Before relying on these values, please be sure to understand exactly which
  total energy value is referred to by a given number. Different objects may
  all carry the same name 'total energy'. Definitions:

  Total energy of the DFT / Hartree-Fock s.c.f. calculation:
  | Note that this energy does not include ANY quantities calculated after the
  | s.c.f. cycle, in particular not ANY RPA, MP2, etc. many-body perturbation terms.

  Final zero-broadening corrected energy:
  | For metallic systems only, a broadening of the occupation numbers at the Fermi
  | level can be extrapolated back to zero broadening by an electron-gas inspired
  | formula. For all systems that are not real metals, this value can be
  | meaningless and should be avoided.

------------------------------------------------------------------------------

------------------------------------------------------------
          Leaving FHI-aims.
          Date     :  20150727, Time     :  121917.919

          Computational steps:
          | Number of self-consistency cycles          :           17

          Detailed time accounting                     :  max(cpu_time)    wall_clock(cpu1)
          | Total time                                 :       32.239 s          32.266 s
          | Preparation time                           :        0.172 s           0.518 s
          | Grid partitioning                          :        0.127 s           0.127 s
          | Preloading free-atom quantities on grid    :        0.014 s           0.013 s
          | Free-atom superposition energy             :        0.051 s           0.051 s
          | Total time for integrations                :       12.848 s          12.846 s
          | Total time for solution of K.-S. equations :        0.736 s           0.742 s
          | Total time for density & force components  :       12.090 s          12.088 s
          | Total time for mixing                      :        0.187 s           0.189 s
          | Total time for Hartree multipole update    :        0.077 s           0.075 s
          | Total time for Hartree multipole sum       :        5.330 s           5.330 s
          | Total time for total energy evaluation     :        0.006 s           0.015 s
          | Total time for scaled ZORA corrections     :        0.000 s           0.000 s
          | Total time for TS (2009) vdW correction    :        0.043 s           0.046 s

          Have a nice day.
------------------------------------------------------------
