  MPI-parallelism will be employed.
------------------------------------------------------------
          Invoking FHI-aims ...
          Version 081213
          Compiled on 2013/08/29 at 17:41:06 on host generoso.

          When using FHI-aims, please cite the following reference:

          Volker Blum, Ralf Gehrke, Felix Hanke, Paula Havu,
          Ville Havu, Xinguo Ren, Karsten Reuter, and Matthias Scheffler,
          'Ab Initio Molecular Simulations with Numeric Atom-Centered Orbitals: FHI-aims',
          Computer Physics Communications 180, 2175-2196 (2009)

          For any questions about FHI-aims, please visit the aimsclub website
          with its forums and wiki. Contributions to both the forums and the
          wiki are warmly encouraged - they are for you, and everyone is welcome there.

------------------------------------------------------------

  Date     :  20150727, Time     :  123224.352
  Time zero on CPU 1             :   0.429930000000000E-01  s.
  Internal wall clock time zero  :           207232344.352  s.

  Using        8 parallel tasks.
  Task        0 on host gen59 reporting.
  Task        1 on host gen59 reporting.
  Task        2 on host gen59 reporting.
  Task        3 on host gen59 reporting.
  Task        4 on host gen59 reporting.
  Task        5 on host gen59 reporting.
  Task        6 on host gen59 reporting.
  Task        7 on host gen59 reporting.

  Performing system and environment tests:
  | Environment variable OMP_NUM_THREADS correctly set to 1.
  | Checking for scalapack...
  | No scalapack compiled in.

  Obtaining array dimensions for all initial allocations:
  
  -----------------------------------------------------------------------
  Parsing control.in (first pass over file, find array dimensions only).
  The contents of control.in will be repeated verbatim below
  unless switched off by setting 'verbatim_writeout .false.' .
  in the first line of control.in .
  -----------------------------------------------------------------------
  
  #########################################################################################
  #
  #  Volker Blum, FHI 2008 : Test run input file control.in
  #
  #########################################################################################
  #
  #  Physical model
  #
    xc                 rpbe
    spin               none
    relativistic       atomic_zora scalar
    charge             0.
   vdw_correction_hirshfeld
  #
  #  SCF convergence
  #
    occupation_type    gaussian 0.01
    mixer              pulay
      n_max_pulay        10
      charge_mix_param   0.1
    sc_accuracy_rho    5E-5
    sc_accuracy_eev    5E-3
    sc_accuracy_etot   5E-6
    sc_iter_limit      3000
  #
  #  Eigenvalue solver
  #
    KS_method          lapack
      empty_states       8
      basis_threshold    0.e-5
  #
  #  Efficiency
  #
  #   all previous settings are now default, except stratmann still
  #   undecided. Continue to handle stratmann with care, if at all.
  #
  #  partition_type stratmann
    partition_type rho_r2
  #  hartree_partition_type stratmann
  #
  #  Oprions for large clusters (100's of atoms: memory saving / better scaling)
  #
  # for periodic systems:
  #
    density_update_method orbital
    packed_matrix_format none
  #  k_grid 6 6 6
  #  output k_eigenvalue 1
  #  distributed_spline_storage .true.
  #
  #  Relaxation
  #
  #  relax_geometry   bfgs 5.e-3
    sc_accuracy_forces 5.E-4
    final_forces_cleaned .true.
  #
  #  Output options
  #
  #  output mulliken
    output Hirshfeld
  #  output dipole
  
  #harmonic_length_scale 0.001
  
  ################################################################################
  #
  #  FHI-aims code project
  #  VB, Fritz-Haber Institut, 2007
  #
  #  Suggested "safe" defaults for H atom (to be pasted into control.in file)
  #  Basis constructed for a non-relativistic H2 molecule using the
  #  PW-LDA functional.
  #
  ################################################################################
    species        H
  #     global species definitions
      nucleus             1
      cut_pot             4.0  2.0  1.0
      cut_free_atom       finite 8.0
      logarithmic         0.00010000 100.00  1.0123
      basis_dep_cutoff    1d-4  # 1d-4 is safe default - please check 5d-4 if you wish!
      radial_base         24 7.0
      radial_multiplier   2
      angular_grids       specified
        division   0.2783  110
        division   0.3822  194
        division   0.5626  302
  #      division   0.5922  434
  #      division   0.6227  590
  #      division   0.7206  770
        outer_grid  302
      l_hartree           4
  ################################################################################
  #
  #  Definition of "minimal" basis
  #
  ################################################################################
  #     valence basis states
      valence      1  s   1.
  #     ion occupancy
      ion_occ      1  s   0.5
  ################################################################################
  #
  #  Suggested additional basis functions. For production calculations,
  #  uncomment them one after another (the most important basis functions are
  #  listed first).
  #
  ################################################################################
  #  "First tier" - improvements: -1014.90 meV to -62.69 meV
       hydro 2 s 2.1
       hydro 2 p 3.5
  #  "Second tier" - improvements: -12.89 meV to -1.83 meV
       hydro 1 s 0.85
       hydro 2 p 3.7
       hydro 2 s 1.2
       hydro 3 d 7
  #  "Third tier" - improvements: -0.25 meV to -0.12 meV
  #     hydro 4 f 11.2
  #     hydro 3 p 4.8
  #     hydro 4 d 9
  #     hydro 3 s 3.2
  
  ################################################################################
  #
  #  FHI-aims code project
  #  VB, Fritz-Haber Institut, 2007
  #
  #  Suggested "safe" defaults for O atom (to be pasted into control.in file)
  #  All values have been tested for a non-relativistic, non-spinpolarized O2
  #  molecule using the PW-LDA functional. Validity for PBE is expected.
  #
  #  Constructed for dimers: 1.0 A, 1.208 A, 1.5 A, 2.0 A, 3.0 A
  #
  ################################################################################
    species        O
  #     global species definitions
      nucleus             8
      mass                15.9994
      l_hartree           4
      cut_pot             4.0  2.0  1.0
      cut_free_atom       finite 8.0
      basis_dep_cutoff    1d-4  # 1d-4 is safe default - please check 5d-4 if you wish!
      logarithmic         0.00010000 100.00  1.0123
      radial_base         36 7.0
      radial_multiplier   2
       angular_grids specified
        division   0.4087  110
        division   0.5181  194
        division   0.6184  302
  #      division   0.7315  434
  #      division   0.7934  590
  #      division   0.9656  770
  #      division   1.4041  974
  #      outer_grid 974
        outer_grid 302
  ################################################################################
  #
  #  Definition of "minimal" basis
  #
  ################################################################################
  #     valence basis states
      valence      2  s   2.
      valence      2  p   4.
  #     ion occupancy
      ion_occ      2  s   1.
      ion_occ      2  p   3.
  ################################################################################
  #
  #  Suggested additional basis functions. For production calculations,
  #  uncomment them one after another (the most important basis functions are
  #  listed first).
  #
  ################################################################################
  #  "First tier" - improvements: -699.05 meV to -159.38 meV
       hydro 2 p 1.8
       hydro 3 d 7.6
       hydro 3 s 6.4
  #  "Second tier" - improvements: -49.91 meV to -5.39 meV
       hydro 4 f 11.6
       hydro 3 p 6.2
       hydro 3 d 5.6
       hydro 5 g 17.6
       hydro 1 s 0.75
  #  "Third tier" - improvements: -2.83 meV to -0.50 meV
  #     ionic 2 p auto
  #     hydro 4 f 10.8
  #     hydro 4 d 4.7
  #     hydro 2 s 6.8
  #  "Fourth tier" - improvements: -0.40 meV to -0.12 meV
  #     hydro 3 p 5
  #     hydro 3 s 3.3
  #     hydro 5 g 15.6
  #     hydro 4 f 17.6
  #     hydro 4 d 14
  # Further basis functions - -0.08 meV and below
  #     hydro 3 s 2.1
  #     hydro 4 d 11.6
  #     hydro 3 p 16
  #     hydro 2 s 17.2
  
  
  -----------------------------------------------------------------------
  Completed first pass over input file control.in .
  -----------------------------------------------------------------------
  
  
  -----------------------------------------------------------------------
  Parsing geometry.in (first pass over file, find array dimensions only).
  The contents of geometry.in will be repeated verbatim below
  unless switched off by setting 'verbatim_writeout .false.' .
  in the first line of geometry.in .
  -----------------------------------------------------------------------
  
  atom      -4.053030000      0.065001000     -1.525160000  O
  atom      -4.566710000      0.974813000     -1.912820000  H
  atom      -3.067820000      0.330172000     -1.477310000  H
  atom      -4.370360000     -0.049164000     -0.572274000  H
  atom      -4.581760000     -0.256435000      0.939478000  O
  atom      -4.349860000      0.471090000      1.504340000  H
  atom      -5.393870000     -0.726611000      1.228070000  H
  
  -----------------------------------------------------------------------
  Completed first pass over input file geometry.in .
  -----------------------------------------------------------------------
  
 
  Basic array size parameters: 
  | Number of species                 :        2
  | Number of atoms                   :        7
  | Max. basis fn. angular momentum   :        4
  | Max. atomic/ionic basis occupied n:        2
  | Max. number of basis fn. types    :        2
  | Max. radial fns per species/type  :        8
  | Max. logarithmic grid size        :     1301
  | Max. radial integration grid size :       73
  | Max. angular integration grid size:      302
  | Max. angular grid division number :        8
  | Radial grid for Hartree potential :     1301
  | Number of spin channels           :        1

------------------------------------------------------------
          Reading file control.in.
------------------------------------------------------------
  XC: Using RPBE gradient-corrected functionals.
  Spin treatment: No spin polarisation.
  Scalar relativistic treatment of kinetic energy: on-site free-atom approximation to ZORA.
  Charge =   0.000000E+00: Neutral system requested explicitly.
  Using non-empirical van der Waals correction (Hirshfeld partitioning):
  Occupation type: Gaussian broadening, width =   0.100000E-01 eV.
  Using pulay charge density mixing.
  Pulay mixing - number of memorized iterations:   10
  Charge density mixing - mixing parameter:     0.1000
  Convergence accuracy of self-consistent charge density: 0.5000E-04
  Convergence accuracy of sum of eigenvalues: 0.5000E-02
  Convergence accuracy of total energy: 0.5000E-05
  Maximum number of s.-c. iterations  :  3000
  Kohn-Sham eigenvalues and eigenfunctions calculated by lapack diagonalisation (D&C).
  Number of empty states per atom:        8
  Threshold for basis singularities: 0.0000E+00
  Partition function in integrals calculations: rho / r^2
 Using packed matrix format           0
  Convergence accuracy of forces: 0.5000E-03
  Cleaning forces before final output.
  Hirshfeld charge analysis will be performed.
 
  Reading configuration options for species H                   .
  | Found nuclear charge :   1.0000
  | Found cutoff potl. onset [A], width [A], scale factor :    4.00000    2.00000    1.00000
  | Found cutoff specification for free atom: Cutoff potential begins at    8.00000 A.
  | Found logarithmic grid data [bohr] : 0.1000E-03 0.1000E+03 0.1012E+01
  | Threshold for basis-dependent cutoff potential is   0.100000E-03
  | Found data for basic radial integration grid :    24 points, outermost radius =    7.000 A
  | Found multiplier for basic radial grid :   2
  | Found angular grid specification: user-specified.
  | Specified grid contains     4 separate shells.
  | Check grid settings after all constraints further below.
  | Found l_max for Hartree potential  :   4
  | Found free-atom valence shell :  1 s   1.000
  | No ionic wave fns used. Skipping ion_occ.
  | Found hydrogenic basis function :  2 s   2.100
  | Found hydrogenic basis function :  2 p   3.500
  | Found hydrogenic basis function :  1 s   0.850
  | Found hydrogenic basis function :  2 p   3.700
  | Found hydrogenic basis function :  2 s   1.200
  | Found hydrogenic basis function :  3 d   7.000
  Species H                   : Missing cutoff potential type.
  Defaulting to exp(1/x)/(1-x)^2 type cutoff potential.
  Species H : On-site basis accuracy parameter (for Gram-Schmidt orthonormalisation) not specified.
  Using default value basis_acc =  0.1000000E-03.
  Species H                   : Using default innermost maximum threshold i_radial=  2 for radial functions.
  Species H                   : Basic radial grid will be enhanced according to radial_multiplier =   2, to contain    49 grid points.
 
  Reading configuration options for species O                   .
  | Found nuclear charge :   8.0000
  | Found atomic mass :    15.9994000000000      amu
  | Found l_max for Hartree potential  :   4
  | Found cutoff potl. onset [A], width [A], scale factor :    4.00000    2.00000    1.00000
  | Found cutoff specification for free atom: Cutoff potential begins at    8.00000 A.
  | Threshold for basis-dependent cutoff potential is   0.100000E-03
  | Found logarithmic grid data [bohr] : 0.1000E-03 0.1000E+03 0.1012E+01
  | Found data for basic radial integration grid :    36 points, outermost radius =    7.000 A
  | Found multiplier for basic radial grid :   2
  | Found angular grid specification: user-specified.
  | Specified grid contains     4 separate shells.
  | Check grid settings after all constraints further below.
  | Found free-atom valence shell :  2 s   2.000
  | Found free-atom valence shell :  2 p   4.000
  | No ionic wave fns used. Skipping ion_occ.
  | No ionic wave fns used. Skipping ion_occ.
  | Found hydrogenic basis function :  2 p   1.800
  | Found hydrogenic basis function :  3 d   7.600
  | Found hydrogenic basis function :  3 s   6.400
  | Found hydrogenic basis function :  4 f  11.600
  | Found hydrogenic basis function :  3 p   6.200
  | Found hydrogenic basis function :  3 d   5.600
  | Found hydrogenic basis function :  5 g  17.600
  | Found hydrogenic basis function :  1 s   0.750
  Species O                   : Missing cutoff potential type.
  Defaulting to exp(1/x)/(1-x)^2 type cutoff potential.
  Species O : On-site basis accuracy parameter (for Gram-Schmidt orthonormalisation) not specified.
  Using default value basis_acc =  0.1000000E-03.
  Species O                   : Using default innermost maximum threshold i_radial=  2 for radial functions.
  Species O                   : Basic radial grid will be enhanced according to radial_multiplier =   2, to contain    73 grid points.
 
  Finished reading input file 'control.in'. Consistency checks are next.
 
  Target number of points in a grid batch is not set. Defaulting to  100
  Method for grid partitioning is not set. Defaulting to parallel hash+maxmin partitioning.
  Batch size limit is not set. Defaulting to    200
  By default, will store active basis functions for each batch.
  If in need of memory, prune_basis_once .false. can be used to disable this option.
  communication_type for Hartree potential was not specified.
  Defaulting to calc_hartree .
  Pulay mixer: Number of initial linear mixing iterations not set.
  Defaulting to    0 iterations.
  Work space size for distributed Hartree potential not set.
  Defaulting to   0.200000E+03 MB.
  Algorithm-dependent basis array size parameters:
  | n_max_pulay                         :       10
  Geometry relaxation not requested: no relaxation will be performed.
  Handling of forces: Unphysical translation and rotation will be removed from forces.
  No accuracy limit for integral partition fn. given. Defaulting to 0.1000E-14.
  No threshold value for u(r) in integrations given. Defaulting to 0.1000E-05.
  No accuracy for occupation numbers given. Defaulting to 0.1000E-07.
  No threshold value for occupation numbers given. Defaulting to 0.0000E+00.
  No accuracy for fermi level given. Defaulting to 0.1000E-19.
  Maximum # of iterations to find E_F not set. Defaulting to  200.
  Will not use alltoall communication since running on < 1024 CPUs.
  Partitioning for Hartree potential was not defined. Using partition_type for integrals.
  | Reporting present value of keyword multip_moments_threshold  :       0.10000000E-09
  | This value may affect high angular momentum components of the Hartree potential in periodic systems.
  No q(lm)/r^(l+1) cutoff set for long-range Hartree potential.
  | Using default value of  0.100000E-09 .
  | Verify using the multipole_threshold keyword.
  Defaulting to new monopole extrapolation.
  Density update method: Loop over occupied states selected for charge density update.
------------------------------------------------------------


------------------------------------------------------------
          Reading geometry description geometry.in.
------------------------------------------------------------
  Input structure read successfully.
  The structure contains        7 atoms,  and a total of         21.000 electrons.

  Input geometry:
  | No unit cell requested.
  | Atomic structure:
  |       Atom                x [A]            y [A]            z [A]
  |    1: Species O             -4.053030         0.065001        -1.525160
  |    2: Species H             -4.566710         0.974813        -1.912820
  |    3: Species H             -3.067820         0.330172        -1.477310
  |    4: Species H             -4.370360        -0.049164        -0.572274
  |    5: Species O             -4.581760        -0.256435         0.939478
  |    6: Species H             -4.349860         0.471090         1.504340
  |    7: Species H             -5.393870        -0.726611         1.228070
  |

  | The smallest distance between any two atoms is         0.94981015 AA.
  |
  | The first atom of this pair is atom number                      5 .
  | The second atom of this pair is atom number                     6 .

  Structure-dependent array size parameters: 
  | Maximum number of distinct radial functions  :       18
  | Maximum number of basis functions            :      153
  | Number of Kohn-Sham states (occupied + empty):       39
------------------------------------------------------------

------------------------------------------------------------
          Preparing all fixed parts of the calculation.
------------------------------------------------------------
  Determining machine precision:
    2.225073858507201E-308
  Setting up grids for atomic and cluster calculations.

  Creating wave function, potential, and density for free atoms.

  Species: H

  List of occupied orbitals and eigenvalues:
    n    l              occ      energy [Ha]    energy [eV]
    1    0           1.0000        -0.241408        -6.5691


  Species: O

  List of occupied orbitals and eigenvalues:
    n    l              occ      energy [Ha]    energy [eV]
    1    0           2.0000       -18.944147      -515.4965
    2    0           2.0000        -0.883529       -24.0421
    2    1           4.0000        -0.330176        -8.9845

  Creating fixed part of basis set: Ionic, confined, hydrogenic.
 
  H                    hydrogenic:
 
  List of hydrogenic basis orbitals: 
    n    l      effective z      eigenvalue [eV]  inner max. [A]     outer max. [A]     outer radius [A]   
    2    0         2.100000       -14.9965           0.193241           1.317192           5.372934
    2    1         3.500000       -41.6672           0.602363           0.602363           4.056010
    1    0         0.850000        -9.8292           0.624864           0.624864           5.372934
    2    1         3.700000       -46.5653           0.573616           0.573616           3.909951
    2    0         1.200000        -4.5995           0.334977           2.228160           5.505921
    3    2         7.000000       -74.0753           0.680692           0.680692           3.769152
 
 
  O                    hydrogenic:
 
  List of hydrogenic basis orbitals: 
    n    l      effective z      eigenvalue [eV]  inner max. [A]     outer max. [A]     outer radius [A]   
    2    1         1.800000       -11.0118           1.178546           1.178546           5.432516
    3    2         7.600000       -87.3182           0.624117           0.624117           3.541422
    3    0         6.400000       -61.9209           0.061166           1.081887           4.306510
    4    3        11.600000      -114.4238           0.731621           0.731621           3.584982
    3    1         6.200000       -58.1113           0.255677           1.030255           4.306510
    3    2         5.600000       -47.4081           0.847222           0.847222           4.413102
    5    4        17.600000      -168.5799           0.749730           0.749730           3.372413
    1    0         0.750000        -7.6499           0.705275           0.705275           5.366508
 

  Adding cutoff potential to free-atom effective potential.
  Creating atomic-like basis functions for current effective potential.

  Species H                   :

  List of atomic basis orbitals and eigenvalues:
    n    l      energy [Ha]    energy [eV]    outer radius [A]
    1    0        -0.241374        -6.5681       5.372934


  Species O                   :

  List of atomic basis orbitals and eigenvalues:
    n    l      energy [Ha]    energy [eV]    outer radius [A]
    1    0       -18.944147      -515.4965       1.415745
    2    0        -0.883529       -24.0421       5.048305
    2    1        -0.330173        -8.9845       5.301302

  Assembling full basis from fixed parts.
  | Species H :   atomic orbital   1 s accepted.
  | Species H :    hydro orbital   2 s accepted.
  | Species H :    hydro orbital   1 s accepted.
  | Species H :    hydro orbital   2 s accepted.
  | Species H :    hydro orbital   2 p accepted.
  | Species H :    hydro orbital   2 p accepted.
  | Species H :    hydro orbital   3 d accepted.
  | Species O :   atomic orbital   1 s accepted.
  | Species O :    hydro orbital   3 s accepted.
  | Species O :   atomic orbital   2 s accepted.
  | Species O :    hydro orbital   1 s accepted.
  | Species O :    hydro orbital   3 p accepted.
  | Species O :   atomic orbital   2 p accepted.
  | Species O :    hydro orbital   2 p accepted.
  | Species O :    hydro orbital   3 d accepted.
  | Species O :    hydro orbital   3 d accepted.
  | Species O :    hydro orbital   4 f accepted.
  | Species O :    hydro orbital   5 g accepted.
 
  Basis size parameters after reduction:
  | Total number of radial functions:       18
  | Total number of basis functions :      153
 
  Testing on-site integration grid accuracy.
  |  Species  Function  <phi|h_atom|phi> (log., in eV)  <phi|h_atom|phi> (rad., in eV)
           1        1                 -6.5683835025                 -6.5684759159
           1        2                 13.3711789951                 13.3708738703
           1        3                 23.6590910787                 23.6532055418
           1        4                 16.2963827186                 16.1870710655 ***
           1        5                 28.7627214838                 28.7627215090
           1        6                 59.5965249172                 59.5965950857
           1        7                 60.2220506392                 60.2220503827
           2        8               -515.4964576505               -515.4964530710
           2        9                 15.3030791347                 15.3030722972
           2       10                -21.7296094581                -21.7296135470
           2       11                 14.2969371730                 14.2969701621
           2       12                 21.0679693190                 21.0679697493
           2       13                 -2.3833606469                 -2.3833613176
           2       14                 13.7067136422                 13.7066766629
           2       15                 45.8013116808                 45.8013116965
           2       16                 52.2309815402                 52.2309831494
           2       17                 85.4120732416                 85.4120732763
           2       18                142.1019167745                142.1019167817
 * Note: Onsite integrals marked "***" above are less accurate than
 * onsite_accuracy_threshold =    0.03000 eV. Usually, this is harmless.
 * When in doubt, tighten the "radial" and/or "radial_multiplier" flags to check.

  Preparing densities etc. for the partition functions (integrals / Hartree potential).

  Preparations completed.
  max(cpu_time)          :      0.173 s.
  Wall clock time (cpu1) :      0.572 s.
------------------------------------------------------------

------------------------------------------------------------
          Begin self-consistency loop: Initialization.

          Date     :  20150727, Time     :  123224.936
------------------------------------------------------------

  Initializing index lists of integration centers etc. from given atomic structure:
  | Number of centers in hartree potential         :         7
  | Number of centers in hartree multipole         :         7
  | Number of centers in electron density summation:         7
  | Number of centers in basis integrals           :         7
  | Number of centers in integrals                 :         7
  Partitioning the integration grid into batches with parallel hashing+maxmin method.
  | Number of batches:     1102
  | Maximal batch size:     197
  | Minimal batch size:      49
  | Average batch size:      81.922
  | Standard deviation of batch sizes:      24.198

  Integration load balanced across     8 MPI tasks.
  Work distribution over tasks is as follows:
  Task     0 has      11299 integration points.
  Task     1 has      11292 integration points.
  Task     2 has      11222 integration points.
  Task     3 has      11367 integration points.
  Task     4 has      11251 integration points.
  Task     5 has      11221 integration points.
  Task     6 has      11409 integration points.
  Task     7 has      11217 integration points.
  Initializing partition tables, free-atom densities, potentials, etc. across the integration grid (initialize_grid_storage).
  | Net number of integration points:    90278
  | of which are non-zero points    :    89842
  Obtaining max. number of non-zero basis functions in each batch (get_n_compute_maxes).
  | Maximal number of non-zero basis functions:      153 in task     0
  | Maximal number of non-zero basis functions:      153 in task     1
  | Maximal number of non-zero basis functions:      153 in task     2
  | Maximal number of non-zero basis functions:      153 in task     3
  | Maximal number of non-zero basis functions:      153 in task     4
  | Maximal number of non-zero basis functions:      153 in task     5
  | Maximal number of non-zero basis functions:      153 in task     6
  | Maximal number of non-zero basis functions:      153 in task     7
  Integrating Hamiltonian matrix: batch-based integration.
  Time summed over all CPUs for integration: real work        1.482 s, elapsed        1.528 s
  Integrating overlap matrix.
  Time summed over all CPUs for integration: real work        0.744 s, elapsed        0.765 s

  Updating Kohn-Sham eigenvalues, eigenvectors, occupation numbers, and Fermi level.
  Solving generalized eigenproblem
  Updating Kohn-Sham eigenvalues and eigenfunctions.
  Transforming overlap matrix and checking for singularities.
  Overlap matrix is nonsingular:
  | Lowest eigenvalue:  0.303055E-03
  Solving real generalised eigenvalue problem by standard LAPACK (fast)
  Determining occupation numbers for Kohn-Sham eigenstates.
  | Chemical potential (Fermi level) in eV                 : -.27675311E+01
  | Error in electron count due to remaining E_F inaccuracy: 0.33107739E-10
  | Maximum occupation number of highest empty state:  0.00E+00

  Writing Kohn-Sham eigenvalues.

  State    Occupation    Eigenvalue [Ha]    Eigenvalue [eV]
      1       2.00000         -19.064904         -518.78244
      2       2.00000         -19.059126         -518.62520
      3       2.00000          -1.124545          -30.60044
      4       2.00000          -1.103376          -30.02439
      5       2.00000          -0.651127          -17.71808
      6       2.00000          -0.639660          -17.40604
      7       2.00000          -0.602209          -16.38693
      8       2.00000          -0.515205          -14.01944
      9       2.00000          -0.484595          -13.18650
     10       2.00000          -0.446105          -12.13915
     11       1.00000          -0.101705           -2.76753
     12       0.00000          -0.061531           -1.67435
     13       0.00000          -0.031311           -0.85202
     14       0.00000          -0.005652           -0.15380
     15       0.00000           0.049608            1.34992
     16       0.00000           0.067296            1.83121
     17       0.00000           0.079087            2.15206
     18       0.00000           0.101345            2.75772
     19       0.00000           0.107419            2.92303
     20       0.00000           0.132110            3.59489
     21       0.00000           0.140123            3.81295
     22       0.00000           0.154279            4.19815
     23       0.00000           0.205236            5.58475
     24       0.00000           0.216224            5.88376
     25       0.00000           0.240444            6.54281
     26       0.00000           0.268212            7.29843
     27       0.00000           0.331230            9.01322
     28       0.00000           0.352999            9.60558
     29       0.00000           0.361792            9.84487
     30       0.00000           0.388556           10.57314
     31       0.00000           0.397205           10.80849
     32       0.00000           0.419394           11.41230
     33       0.00000           0.456570           12.42390
     34       0.00000           0.523385           14.24202
     35       0.00000           0.529212           14.40058
     36       0.00000           0.603835           16.43120
     37       0.00000           0.656391           17.86130
     38       0.00000           0.725026           19.72897
     39       0.00000           0.739990           20.13615

  Highest occupied state (VBM) at     -2.76753114 eV
  | Occupation number:      1.00000000

  Lowest unoccupied state (CBM) at    -1.67434572 eV
  | Occupation number:      0.00000000

  Overall HOMO-LUMO gap:      1.09318542 eV.
  Calculating total energy contributions from superposition of free atom densities.

  Total energy components:
  | Sum of eigenvalues            :         -87.48341040 Ha       -2380.54471779 eV
  | XC energy correction          :         -18.58235987 Ha        -505.65173946 eV
  | XC potential correction       :          23.75292882 Ha         646.35007901 eV
  | Free-atom electrostatic energy:         -71.36096886 Ha       -1941.83076194 eV
  | Hartree energy correction     :           0.00000000 Ha           0.00000000 eV
  | van der Waals energy corr.    :           0.00000000 Ha           0.00000000 eV
  | Entropy correction            :          -0.00010367 Ha          -0.00282095 eV
  | ---------------------------
  | Total energy                  :        -153.67381032 Ha       -4181.67714018 eV
  | Total energy, T -> 0          :        -153.67391399 Ha       -4181.67996113 eV  <-- do not rely on this value for anything but (periodic) metals
  | Electronic free energy        :        -153.67401766 Ha       -4181.68278208 eV

  Derived energy quantities:
  | Kinetic energy                :         152.34963252 Ha        4145.64442889 eV
  | Electrostatic energy          :        -287.44108296 Ha       -7821.66982961 eV
  | Energy correction for multipole
  | error in Hartree potential    :           0.00000000 Ha           0.00000000 eV
  | Sum of eigenvalues per atom                           :        -340.07781683 eV
  | Total energy (T->0) per atom                          :        -597.38285159 eV  <-- do not rely on this value for anything but (periodic) metals
  | Electronic free energy per atom                       :        -597.38325458 eV
  Initialize hartree_potential_storage
  Max. number of atoms included in rho_multipole:            7

  End scf initialization - timings             :  max(cpu_time)    wall_clock(cpu1)
  | Time for scf. initialization               :        0.444 s           0.443 s
  | Boundary condition initialization          :        0.000 s           0.000 s
  | Integration                                :        0.288 s           0.288 s
  | Solution of K.-S. eqns.                    :        0.035 s           0.035 s
  | Grid partitioning                          :        0.057 s           0.056 s
  | Preloading free-atom quantities on grid    :        0.014 s           0.013 s
  | Free-atom superposition energy             :        0.019 s           0.020 s
  | Total energy evaluation                    :        0.001 s           0.000 s
------------------------------------------------------------

------------------------------------------------------------
          Begin self-consistency iteration #    1

  Date     :  20150727, Time     :  123225.379
------------------------------------------------------------
  Evaluating new KS density.
  Integration grid: deviation in total charge (<rho> - N_e) =   3.311840E-11
  Pulay mixing of updated and previous charge densities.

  Evaluating partitioned Hartree potential by multipole expansion.
  | Analytical far-field extrapolation by fixed multipoles:
  | Hartree multipole sum: apparent total charge =  -0.307646E-06
  Summing up the Hartree potential.
  Time summed over all CPUs for potential: real work        0.571 s, elapsed        0.577 s
  | RMS charge density error from multipole expansion :   0.109758E-02

  Integrating Hamiltonian matrix: batch-based integration.
  Time summed over all CPUs for integration: real work        1.483 s, elapsed        1.525 s

  Updating Kohn-Sham eigenvalues, eigenvectors, occupation numbers, and Fermi level.
  Solving generalized eigenproblem
  Updating Kohn-Sham eigenvalues and eigenfunctions.
  Solving real generalised eigenvalue problem by standard LAPACK (fast)
  Determining occupation numbers for Kohn-Sham eigenstates.
  | Chemical potential (Fermi level) in eV                 : -.25808079E+01
  | Error in electron count due to remaining E_F inaccuracy: 0.00000000E+00
  | Maximum occupation number of highest empty state:  0.00E+00

  Writing Kohn-Sham eigenvalues.

  State    Occupation    Eigenvalue [Ha]    Eigenvalue [eV]
      1       2.00000         -19.007096         -517.20939
      2       2.00000         -18.988777         -516.71092
      3       2.00000          -1.095821          -29.81881
      4       2.00000          -1.071133          -29.14701
      5       2.00000          -0.623322          -16.96146
      6       2.00000          -0.614760          -16.72848
      7       2.00000          -0.578169          -15.73278
      8       2.00000          -0.484161          -13.17468
      9       2.00000          -0.454323          -12.36276
     10       2.00000          -0.411703          -11.20301
     11       1.00000          -0.094843           -2.58081
     12       0.00000          -0.055705           -1.51582
     13       0.00000          -0.024957           -0.67911
     14       0.00000          -0.001588           -0.04322
     15       0.00000           0.053646            1.45979
     16       0.00000           0.071205            1.93759
     17       0.00000           0.083881            2.28251
     18       0.00000           0.106342            2.89372
     19       0.00000           0.111955            3.04644
     20       0.00000           0.145050            3.94702
     21       0.00000           0.146480            3.98593
     22       0.00000           0.160981            4.38050
     23       0.00000           0.210477            5.72738
     24       0.00000           0.221468            6.02645
     25       0.00000           0.244797            6.66127
     26       0.00000           0.273183            7.43369
     27       0.00000           0.337117            9.17342
     28       0.00000           0.358763            9.76245
     29       0.00000           0.367718           10.00612
     30       0.00000           0.393323           10.70286
     31       0.00000           0.404125           10.99680
     32       0.00000           0.424512           11.55155
     33       0.00000           0.461936           12.56992
     34       0.00000           0.530299           14.43016
     35       0.00000           0.536398           14.59614
     36       0.00000           0.611233           16.63249
     37       0.00000           0.665898           18.12001
     38       0.00000           0.733295           19.95398
     39       0.00000           0.745805           20.29438

  Highest occupied state (VBM) at     -2.58080787 eV
  | Occupation number:      1.00000000

  Lowest unoccupied state (CBM) at    -2.58080787 eV
  | Occupation number:      1.00000000

  Overall HOMO-LUMO gap:      0.00000000 eV.

  Total energy components:
  | Sum of eigenvalues            :         -86.75337341 Ha       -2360.67940056 eV
  | XC energy correction          :         -18.66240508 Ha        -507.82988024 eV
  | XC potential correction       :          23.85732061 Ha         649.19072434 eV
  | Free-atom electrostatic energy:         -71.36096886 Ha       -1941.83076194 eV
  | Hartree energy correction     :          -0.71423340 Ha         -19.43527966 eV
  | van der Waals energy corr.    :           0.00000000 Ha           0.00000000 eV
  | Entropy correction            :          -0.00010367 Ha          -0.00282095 eV
  | ---------------------------
  | Total energy                  :        -153.63366013 Ha       -4180.58459806 eV
  | Total energy, T -> 0          :        -153.63376380 Ha       -4180.58741901 eV  <-- do not rely on this value for anything but (periodic) metals
  | Electronic free energy        :        -153.63386747 Ha       -4180.59023996 eV

  Derived energy quantities:
  | Kinetic energy                :         152.85414828 Ha        4159.37300133 eV
  | Electrostatic energy          :        -287.82540334 Ha       -7832.12771914 eV
  | Energy correction for multipole
  | error in Hartree potential    :           0.00043912 Ha           0.01194918 eV
  | Sum of eigenvalues per atom                           :        -337.23991437 eV
  | Total energy (T->0) per atom                          :        -597.22677414 eV  <-- do not rely on this value for anything but (periodic) metals
  | Electronic free energy per atom                       :        -597.22717714 eV

  Self-consistency convergence accuracy:
  | Change of charge density      : 0.3839E+00
  | Change of sum of eigenvalues  : 0.1987E+02 eV
  | Change of total energy        : 0.1093E+01 eV

  End self-consistency iteration #     1       :  max(cpu_time)    wall_clock(cpu1)
  | Time for this iteration                    :        0.412 s           0.412 s
  | Charge density update                      :        0.134 s           0.135 s
  | Density mixing                             :        0.001 s           0.002 s
  | Hartree multipole update                   :        0.003 s           0.002 s
  | Hartree multipole summation                :        0.073 s           0.073 s
  | Integration                                :        0.191 s           0.191 s
  | Solution of K.-S. eqns.                    :        0.008 s           0.009 s
  | Total energy evaluation                    :        0.001 s           0.000 s
------------------------------------------------------------

------------------------------------------------------------
          Begin self-consistency iteration #    2

  Date     :  20150727, Time     :  123225.791
------------------------------------------------------------
  Evaluating new KS density.
  Integration grid: deviation in total charge (<rho> - N_e) =  -3.552714E-15
  Pulay mixing of updated and previous charge densities.

  Evaluating partitioned Hartree potential by multipole expansion.
  | Analytical far-field extrapolation by fixed multipoles:
  | Hartree multipole sum: apparent total charge =  -0.161930E-05
  Summing up the Hartree potential.
  Time summed over all CPUs for potential: real work        0.572 s, elapsed        0.577 s
  | RMS charge density error from multipole expansion :   0.448283E-02

  Integrating Hamiltonian matrix: batch-based integration.
  Time summed over all CPUs for integration: real work        1.482 s, elapsed        1.524 s

  Updating Kohn-Sham eigenvalues, eigenvectors, occupation numbers, and Fermi level.
  Solving generalized eigenproblem
  Updating Kohn-Sham eigenvalues and eigenfunctions.
  Solving real generalised eigenvalue problem by standard LAPACK (fast)
  Determining occupation numbers for Kohn-Sham eigenstates.
  | Chemical potential (Fermi level) in eV                 : -.21537501E+01
  | Error in electron count due to remaining E_F inaccuracy: 0.38167158E-09
  | Maximum occupation number of highest empty state:  0.00E+00

  Highest occupied state (VBM) at     -2.15375014 eV
  | Occupation number:      1.00000000

  Lowest unoccupied state (CBM) at    -1.14107603 eV
  | Occupation number:      0.00000000

  Overall HOMO-LUMO gap:      1.01267411 eV.

  Total energy components:
  | Sum of eigenvalues            :         -85.01382008 Ha       -2313.34374607 eV
  | XC energy correction          :         -18.86379317 Ha        -513.30992899 eV
  | XC potential correction       :          24.11910967 Ha         656.31436707 eV
  | Free-atom electrostatic energy:         -71.36096886 Ha       -1941.83076194 eV
  | Hartree energy correction     :          -2.47055607 Ha         -67.22725105 eV
  | van der Waals energy corr.    :           0.00000000 Ha           0.00000000 eV
  | Entropy correction            :          -0.00010367 Ha          -0.00282095 eV
  | ---------------------------
  | Total energy                  :        -153.59002850 Ha       -4179.39732099 eV
  | Total energy, T -> 0          :        -153.59013217 Ha       -4179.40014194 eV  <-- do not rely on this value for anything but (periodic) metals
  | Electronic free energy        :        -153.59023584 Ha       -4179.40296289 eV

  Derived energy quantities:
  | Kinetic energy                :         153.92075575 Ha        4188.39686726 eV
  | Electrostatic energy          :        -288.64699109 Ha       -7854.48425926 eV
  | Energy correction for multipole
  | error in Hartree potential    :           0.00135571 Ha           0.03689065 eV
  | Sum of eigenvalues per atom                           :        -330.47767801 eV
  | Total energy (T->0) per atom                          :        -597.05716313 eV  <-- do not rely on this value for anything but (periodic) metals
  | Electronic free energy per atom                       :        -597.05756613 eV

  Self-consistency convergence accuracy:
  | Change of charge density      : 0.2929E+00
  | Change of sum of eigenvalues  : 0.4734E+02 eV
  | Change of total energy        : 0.1187E+01 eV

  End self-consistency iteration #     2       :  max(cpu_time)    wall_clock(cpu1)
  | Time for this iteration                    :        0.412 s           0.412 s
  | Charge density update                      :        0.134 s           0.134 s
  | Density mixing                             :        0.002 s           0.003 s
  | Hartree multipole update                   :        0.003 s           0.002 s
  | Hartree multipole summation                :        0.073 s           0.073 s
  | Integration                                :        0.191 s           0.191 s
  | Solution of K.-S. eqns.                    :        0.008 s           0.009 s
  | Total energy evaluation                    :        0.000 s           0.000 s
------------------------------------------------------------

------------------------------------------------------------
          Begin self-consistency iteration #    3

  Date     :  20150727, Time     :  123226.203
------------------------------------------------------------
  Evaluating new KS density.
  Integration grid: deviation in total charge (<rho> - N_e) =   3.816716E-10
  Pulay mixing of updated and previous charge densities.

  Evaluating partitioned Hartree potential by multipole expansion.
  | Analytical far-field extrapolation by fixed multipoles:
  | Hartree multipole sum: apparent total charge =  -0.197992E-05
  Summing up the Hartree potential.
  Time summed over all CPUs for potential: real work        0.571 s, elapsed        0.577 s
  | RMS charge density error from multipole expansion :   0.923528E-02

  Integrating Hamiltonian matrix: batch-based integration.
  Time summed over all CPUs for integration: real work        1.477 s, elapsed        1.520 s

  Updating Kohn-Sham eigenvalues, eigenvectors, occupation numbers, and Fermi level.
  Solving generalized eigenproblem
  Updating Kohn-Sham eigenvalues and eigenfunctions.
  Solving real generalised eigenvalue problem by standard LAPACK (fast)
  Determining occupation numbers for Kohn-Sham eigenstates.
  | Chemical potential (Fermi level) in eV                 : -.22581802E+01
  | Error in electron count due to remaining E_F inaccuracy: 0.19397568E-08
  | Maximum occupation number of highest empty state:  0.00E+00

  Highest occupied state (VBM) at     -2.25818016 eV
  | Occupation number:      1.00000000

  Lowest unoccupied state (CBM) at    -1.16894312 eV
  | Occupation number:      0.00000000

  Overall HOMO-LUMO gap:      1.08923704 eV.

  Total energy components:
  | Sum of eigenvalues            :         -85.25583319 Ha       -2319.92925781 eV
  | XC energy correction          :         -18.85220270 Ha        -512.99453632 eV
  | XC potential correction       :          24.09937264 Ha         655.77729499 eV
  | Free-atom electrostatic energy:         -71.36096886 Ha       -1941.83076194 eV
  | Hartree energy correction     :          -2.22093019 Ha         -60.43458547 eV
  | van der Waals energy corr.    :           0.00000000 Ha           0.00000000 eV
  | Entropy correction            :          -0.00010367 Ha          -0.00282095 eV
  | ---------------------------
  | Total energy                  :        -153.59056231 Ha       -4179.41184655 eV
  | Total energy, T -> 0          :        -153.59066598 Ha       -4179.41466750 eV  <-- do not rely on this value for anything but (periodic) metals
  | Electronic free energy        :        -153.59076964 Ha       -4179.41748845 eV

  Derived energy quantities:
  | Kinetic energy                :         153.26137733 Ha        4170.45426763 eV
  | Electrostatic energy          :        -287.99973694 Ha       -7836.87157786 eV
  | Energy correction for multipole
  | error in Hartree potential    :           0.00051978 Ha           0.01414398 eV
  | Sum of eigenvalues per atom                           :        -331.41846540 eV
  | Total energy (T->0) per atom                          :        -597.05923821 eV  <-- do not rely on this value for anything but (periodic) metals
  | Electronic free energy per atom                       :        -597.05964121 eV

  Self-consistency convergence accuracy:
  | Change of charge density      : 0.1429E+00
  | Change of sum of eigenvalues  : -.6586E+01 eV
  | Change of total energy        : -.1453E-01 eV

  End self-consistency iteration #     3       :  max(cpu_time)    wall_clock(cpu1)
  | Time for this iteration                    :        0.411 s           0.412 s
  | Charge density update                      :        0.134 s           0.134 s
  | Density mixing                             :        0.003 s           0.003 s
  | Hartree multipole update                   :        0.002 s           0.003 s
  | Hartree multipole summation                :        0.073 s           0.072 s
  | Integration                                :        0.191 s           0.191 s
  | Solution of K.-S. eqns.                    :        0.008 s           0.008 s
  | Total energy evaluation                    :        0.000 s           0.001 s
------------------------------------------------------------

------------------------------------------------------------
          Begin self-consistency iteration #    4

  Date     :  20150727, Time     :  123226.615
------------------------------------------------------------
  Evaluating new KS density.
  Integration grid: deviation in total charge (<rho> - N_e) =   1.939760E-09
  Pulay mixing of updated and previous charge densities.

  Evaluating partitioned Hartree potential by multipole expansion.
  | Analytical far-field extrapolation by fixed multipoles:
  | Hartree multipole sum: apparent total charge =  -0.241863E-05
  Summing up the Hartree potential.
  Time summed over all CPUs for potential: real work        0.571 s, elapsed        0.577 s
  | RMS charge density error from multipole expansion :   0.118165E-01

  Integrating Hamiltonian matrix: batch-based integration.
  Time summed over all CPUs for integration: real work        1.476 s, elapsed        1.514 s

  Updating Kohn-Sham eigenvalues, eigenvectors, occupation numbers, and Fermi level.
  Solving generalized eigenproblem
  Updating Kohn-Sham eigenvalues and eigenfunctions.
  Solving real generalised eigenvalue problem by standard LAPACK (fast)
  Determining occupation numbers for Kohn-Sham eigenstates.
  | Chemical potential (Fermi level) in eV                 : -.21762607E+01
  | Error in electron count due to remaining E_F inaccuracy: 0.14343016E-09
  | Maximum occupation number of highest empty state:  0.00E+00

  Highest occupied state (VBM) at     -2.17626072 eV
  | Occupation number:      1.00000000

  Lowest unoccupied state (CBM) at    -1.09953262 eV
  | Occupation number:      0.00000000

  Overall HOMO-LUMO gap:      1.07672810 eV.

  Total energy components:
  | Sum of eigenvalues            :         -84.88056073 Ha       -2309.71757472 eV
  | XC energy correction          :         -18.90887431 Ha        -514.53664937 eV
  | XC potential correction       :          24.17167571 Ha         657.74476189 eV
  | Free-atom electrostatic energy:         -71.36096886 Ha       -1941.83076194 eV
  | Hartree energy correction     :          -2.61081025 Ha         -71.04376150 eV
  | van der Waals energy corr.    :           0.00000000 Ha           0.00000000 eV
  | Entropy correction            :          -0.00010367 Ha          -0.00282095 eV
  | ---------------------------
  | Total energy                  :        -153.58953844 Ha       -4179.38398564 eV
  | Total energy, T -> 0          :        -153.58964211 Ha       -4179.38680659 eV  <-- do not rely on this value for anything but (periodic) metals
  | Electronic free energy        :        -153.58974577 Ha       -4179.38962754 eV

  Derived energy quantities:
  | Kinetic energy                :         153.30735947 Ha        4171.70550534 eV
  | Electrostatic energy          :        -287.98802360 Ha       -7836.55284161 eV
  | Energy correction for multipole
  | error in Hartree potential    :           0.00043695 Ha           0.01189004 eV
  | Sum of eigenvalues per atom                           :        -329.95965353 eV
  | Total energy (T->0) per atom                          :        -597.05525808 eV  <-- do not rely on this value for anything but (periodic) metals
  | Electronic free energy per atom                       :        -597.05566108 eV

  Self-consistency convergence accuracy:
  | Change of charge density      : 0.5932E-01
  | Change of sum of eigenvalues  : 0.1021E+02 eV
  | Change of total energy        : 0.2786E-01 eV

  End self-consistency iteration #     4       :  max(cpu_time)    wall_clock(cpu1)
  | Time for this iteration                    :        0.411 s           0.411 s
  | Charge density update                      :        0.133 s           0.133 s
  | Density mixing                             :        0.004 s           0.004 s
  | Hartree multipole update                   :        0.002 s           0.003 s
  | Hartree multipole summation                :        0.073 s           0.072 s
  | Integration                                :        0.190 s           0.190 s
  | Solution of K.-S. eqns.                    :        0.008 s           0.008 s
  | Total energy evaluation                    :        0.001 s           0.000 s
------------------------------------------------------------

------------------------------------------------------------
          Begin self-consistency iteration #    5

  Date     :  20150727, Time     :  123227.026
------------------------------------------------------------
  Evaluating new KS density.
  Integration grid: deviation in total charge (<rho> - N_e) =   1.434231E-10
  Pulay mixing of updated and previous charge densities.

  Evaluating partitioned Hartree potential by multipole expansion.
  | Analytical far-field extrapolation by fixed multipoles:
  | Hartree multipole sum: apparent total charge =  -0.238742E-05
  Summing up the Hartree potential.
  Time summed over all CPUs for potential: real work        0.571 s, elapsed        0.577 s
  | RMS charge density error from multipole expansion :   0.116741E-01

  Integrating Hamiltonian matrix: batch-based integration.
  Time summed over all CPUs for integration: real work        1.474 s, elapsed        1.515 s

  Updating Kohn-Sham eigenvalues, eigenvectors, occupation numbers, and Fermi level.
  Solving generalized eigenproblem
  Updating Kohn-Sham eigenvalues and eigenfunctions.
  Solving real generalised eigenvalue problem by standard LAPACK (fast)
  Determining occupation numbers for Kohn-Sham eigenstates.
  | Chemical potential (Fermi level) in eV                 : -.21693525E+01
  | Error in electron count due to remaining E_F inaccuracy: -.84583718E-09
  | Maximum occupation number of highest empty state:  0.00E+00

  Highest occupied state (VBM) at     -8.49064787 eV
  | Occupation number:      2.00000000

  Lowest unoccupied state (CBM) at    -2.16935247 eV
  | Occupation number:      1.00000000

  Overall HOMO-LUMO gap:      6.32129540 eV.

  Total energy components:
  | Sum of eigenvalues            :         -84.94476663 Ha       -2311.46470604 eV
  | XC energy correction          :         -18.90087908 Ha        -514.31908813 eV
  | XC potential correction       :          24.16132451 Ha         657.46309126 eV
  | Free-atom electrostatic energy:         -71.36096886 Ha       -1941.83076194 eV
  | Hartree energy correction     :          -2.54402084 Ha         -69.22632937 eV
  | van der Waals energy corr.    :           0.00000000 Ha           0.00000000 eV
  | Entropy correction            :          -0.00010367 Ha          -0.00282095 eV
  | ---------------------------
  | Total energy                  :        -153.58931091 Ha       -4179.37779422 eV
  | Total energy, T -> 0          :        -153.58941458 Ha       -4179.38061517 eV  <-- do not rely on this value for anything but (periodic) metals
  | Electronic free energy        :        -153.58951824 Ha       -4179.38343611 eV

  Derived energy quantities:
  | Kinetic energy                :         153.29192337 Ha        4171.28546750 eV
  | Electrostatic energy          :        -287.98035519 Ha       -7836.34417358 eV
  | Energy correction for multipole
  | error in Hartree potential    :           0.00038689 Ha           0.01052794 eV
  | Sum of eigenvalues per atom                           :        -330.20924372 eV
  | Total energy (T->0) per atom                          :        -597.05437360 eV  <-- do not rely on this value for anything but (periodic) metals
  | Electronic free energy per atom                       :        -597.05477659 eV

  Self-consistency convergence accuracy:
  | Change of charge density      : 0.1637E-01
  | Change of sum of eigenvalues  : -.1747E+01 eV
  | Change of total energy        : 0.6191E-02 eV

  End self-consistency iteration #     5       :  max(cpu_time)    wall_clock(cpu1)
  | Time for this iteration                    :        0.411 s           0.411 s
  | Charge density update                      :        0.133 s           0.133 s
  | Density mixing                             :        0.004 s           0.004 s
  | Hartree multipole update                   :        0.002 s           0.003 s
  | Hartree multipole summation                :        0.072 s           0.072 s
  | Integration                                :        0.190 s           0.190 s
  | Solution of K.-S. eqns.                    :        0.009 s           0.009 s
  | Total energy evaluation                    :        0.000 s           0.000 s
------------------------------------------------------------

------------------------------------------------------------
          Begin self-consistency iteration #    6

  Date     :  20150727, Time     :  123227.437
------------------------------------------------------------
  Evaluating new KS density.
  Integration grid: deviation in total charge (<rho> - N_e) =  -8.458336E-10
  Pulay mixing of updated and previous charge densities.

  Evaluating partitioned Hartree potential by multipole expansion.
  | Analytical far-field extrapolation by fixed multipoles:
  | Hartree multipole sum: apparent total charge =  -0.238223E-05
  Summing up the Hartree potential.
  Time summed over all CPUs for potential: real work        0.571 s, elapsed        0.577 s
  | RMS charge density error from multipole expansion :   0.118041E-01

  Integrating Hamiltonian matrix: batch-based integration.
  Time summed over all CPUs for integration: real work        1.475 s, elapsed        1.519 s

  Updating Kohn-Sham eigenvalues, eigenvectors, occupation numbers, and Fermi level.
  Solving generalized eigenproblem
  Updating Kohn-Sham eigenvalues and eigenfunctions.
  Solving real generalised eigenvalue problem by standard LAPACK (fast)
  Determining occupation numbers for Kohn-Sham eigenstates.
  | Chemical potential (Fermi level) in eV                 : -.21766627E+01
  | Error in electron count due to remaining E_F inaccuracy: -.72475359E-12
  | Maximum occupation number of highest empty state:  0.00E+00

  Highest occupied state (VBM) at     -8.49066328 eV
  | Occupation number:      2.00000000

  Lowest unoccupied state (CBM) at    -2.17666271 eV
  | Occupation number:      1.00000000

  Overall HOMO-LUMO gap:      6.31400057 eV.

  Total energy components:
  | Sum of eigenvalues            :         -84.95005735 Ha       -2311.60867389 eV
  | XC energy correction          :         -18.90106967 Ha        -514.32427430 eV
  | XC potential correction       :          24.16145668 Ha         657.46668768 eV
  | Free-atom electrostatic energy:         -71.36096886 Ha       -1941.83076194 eV
  | Hartree energy correction     :          -2.53868085 Ha         -69.08102062 eV
  | van der Waals energy corr.    :           0.00000000 Ha           0.00000000 eV
  | Entropy correction            :          -0.00010367 Ha          -0.00282095 eV
  | ---------------------------
  | Total energy                  :        -153.58932005 Ha       -4179.37804307 eV
  | Total energy, T -> 0          :        -153.58942372 Ha       -4179.38086402 eV  <-- do not rely on this value for anything but (periodic) metals
  | Electronic free energy        :        -153.58952739 Ha       -4179.38368496 eV

  Derived energy quantities:
  | Kinetic energy                :         153.28693068 Ha        4171.14960962 eV
  | Electrostatic energy          :        -287.97518106 Ha       -7836.20337839 eV
  | Energy correction for multipole
  | error in Hartree potential    :           0.00034677 Ha           0.00943605 eV
  | Sum of eigenvalues per atom                           :        -330.22981056 eV
  | Total energy (T->0) per atom                          :        -597.05440915 eV  <-- do not rely on this value for anything but (periodic) metals
  | Electronic free energy per atom                       :        -597.05481214 eV

  Self-consistency convergence accuracy:
  | Change of charge density      : 0.4529E-02
  | Change of sum of eigenvalues  : -.1440E+00 eV
  | Change of total energy        : -.2488E-03 eV

  End self-consistency iteration #     6       :  max(cpu_time)    wall_clock(cpu1)
  | Time for this iteration                    :        0.413 s           0.413 s
  | Charge density update                      :        0.133 s           0.133 s
  | Density mixing                             :        0.005 s           0.005 s
  | Hartree multipole update                   :        0.003 s           0.003 s
  | Hartree multipole summation                :        0.072 s           0.072 s
  | Integration                                :        0.191 s           0.191 s
  | Solution of K.-S. eqns.                    :        0.008 s           0.008 s
  | Total energy evaluation                    :        0.001 s           0.001 s
------------------------------------------------------------

------------------------------------------------------------
          Begin self-consistency iteration #    7

  Date     :  20150727, Time     :  123227.850
------------------------------------------------------------
  Evaluating new KS density.
  Integration grid: deviation in total charge (<rho> - N_e) =  -7.034373E-13
  Pulay mixing of updated and previous charge densities.

  Evaluating partitioned Hartree potential by multipole expansion.
  | Analytical far-field extrapolation by fixed multipoles:
  | Hartree multipole sum: apparent total charge =  -0.235832E-05
  Summing up the Hartree potential.
  Time summed over all CPUs for potential: real work        0.571 s, elapsed        0.577 s
  | RMS charge density error from multipole expansion :   0.118242E-01

  Integrating Hamiltonian matrix: batch-based integration.
  Time summed over all CPUs for integration: real work        1.475 s, elapsed        1.515 s

  Updating Kohn-Sham eigenvalues, eigenvectors, occupation numbers, and Fermi level.
  Solving generalized eigenproblem
  Updating Kohn-Sham eigenvalues and eigenfunctions.
  Solving real generalised eigenvalue problem by standard LAPACK (fast)
  Determining occupation numbers for Kohn-Sham eigenstates.
  | Chemical potential (Fermi level) in eV                 : -.21971127E+01
  | Error in electron count due to remaining E_F inaccuracy: -.25579538E-12
  | Maximum occupation number of highest empty state:  0.00E+00

  Highest occupied state (VBM) at     -8.55262034 eV
  | Occupation number:      2.00000000

  Lowest unoccupied state (CBM) at    -2.19711274 eV
  | Occupation number:      1.00000000

  Overall HOMO-LUMO gap:      6.35550761 eV.

  Total energy components:
  | Sum of eigenvalues            :         -84.98381985 Ha       -2312.52739834 eV
  | XC energy correction          :         -18.89762876 Ha        -514.23064226 eV
  | XC potential correction       :          24.15688199 Ha         657.34220426 eV
  | Free-atom electrostatic energy:         -71.36096886 Ha       -1941.83076194 eV
  | Hartree energy correction     :          -2.50377668 Ha         -68.13122992 eV
  | van der Waals energy corr.    :           0.00000000 Ha           0.00000000 eV
  | Entropy correction            :          -0.00010367 Ha          -0.00282095 eV
  | ---------------------------
  | Total energy                  :        -153.58931216 Ha       -4179.37782820 eV
  | Total energy, T -> 0          :        -153.58941583 Ha       -4179.38064915 eV  <-- do not rely on this value for anything but (periodic) metals
  | Electronic free energy        :        -153.58951949 Ha       -4179.38347009 eV

  Derived energy quantities:
  | Kinetic energy                :         153.30276232 Ha        4171.58041038 eV
  | Electrostatic energy          :        -287.99444572 Ha       -7836.72759632 eV
  | Energy correction for multipole
  | error in Hartree potential    :           0.00025511 Ha           0.00694189 eV
  | Sum of eigenvalues per atom                           :        -330.36105691 eV
  | Total energy (T->0) per atom                          :        -597.05437845 eV  <-- do not rely on this value for anything but (periodic) metals
  | Electronic free energy per atom                       :        -597.05478144 eV

  Self-consistency convergence accuracy:
  | Change of charge density      : 0.3926E-02
  | Change of sum of eigenvalues  : -.9187E+00 eV
  | Change of total energy        : 0.2149E-03 eV

  End self-consistency iteration #     7       :  max(cpu_time)    wall_clock(cpu1)
  | Time for this iteration                    :        0.412 s           0.412 s
  | Charge density update                      :        0.132 s           0.132 s
  | Density mixing                             :        0.006 s           0.006 s
  | Hartree multipole update                   :        0.002 s           0.003 s
  | Hartree multipole summation                :        0.072 s           0.072 s
  | Integration                                :        0.190 s           0.190 s
  | Solution of K.-S. eqns.                    :        0.009 s           0.009 s
  | Total energy evaluation                    :        0.000 s           0.000 s
------------------------------------------------------------

------------------------------------------------------------
          Begin self-consistency iteration #    8

  Date     :  20150727, Time     :  123228.262
------------------------------------------------------------
  Evaluating new KS density.
  Integration grid: deviation in total charge (<rho> - N_e) =  -2.664535E-13
  Pulay mixing of updated and previous charge densities.

  Evaluating partitioned Hartree potential by multipole expansion.
  | Analytical far-field extrapolation by fixed multipoles:
  | Hartree multipole sum: apparent total charge =  -0.234478E-05
  Summing up the Hartree potential.
  Time summed over all CPUs for potential: real work        0.571 s, elapsed        0.577 s
  | RMS charge density error from multipole expansion :   0.118361E-01

  Integrating Hamiltonian matrix: batch-based integration.
  Time summed over all CPUs for integration: real work        1.474 s, elapsed        1.517 s

  Updating Kohn-Sham eigenvalues, eigenvectors, occupation numbers, and Fermi level.
  Solving generalized eigenproblem
  Updating Kohn-Sham eigenvalues and eigenfunctions.
  Solving real generalised eigenvalue problem by standard LAPACK (fast)
  Determining occupation numbers for Kohn-Sham eigenstates.
  | Chemical potential (Fermi level) in eV                 : -.21993020E+01
  | Error in electron count due to remaining E_F inaccuracy: -.41630699E-10
  | Maximum occupation number of highest empty state:  0.00E+00

  Highest occupied state (VBM) at     -8.55864279 eV
  | Occupation number:      2.00000000

  Lowest unoccupied state (CBM) at    -2.19930202 eV
  | Occupation number:      1.00000000

  Overall HOMO-LUMO gap:      6.35934077 eV.

  Total energy components:
  | Sum of eigenvalues            :         -84.98786913 Ha       -2312.63758485 eV
  | XC energy correction          :         -18.89747368 Ha        -514.22642232 eV
  | XC potential correction       :          24.15665749 Ha         657.33609517 eV
  | Free-atom electrostatic energy:         -71.36096886 Ha       -1941.83076194 eV
  | Hartree energy correction     :          -2.49965814 Ha         -68.01915885 eV
  | van der Waals energy corr.    :           0.00000000 Ha           0.00000000 eV
  | Entropy correction            :          -0.00010367 Ha          -0.00282095 eV
  | ---------------------------
  | Total energy                  :        -153.58931233 Ha       -4179.37783280 eV
  | Total energy, T -> 0          :        -153.58941599 Ha       -4179.38065374 eV  <-- do not rely on this value for anything but (periodic) metals
  | Electronic free energy        :        -153.58951966 Ha       -4179.38347469 eV

  Derived energy quantities:
  | Kinetic energy                :         153.30508098 Ha        4171.64350428 eV
  | Electrostatic energy          :        -287.99691963 Ha       -7836.79491476 eV
  | Energy correction for multipole
  | error in Hartree potential    :           0.00023966 Ha           0.00652142 eV
  | Sum of eigenvalues per atom                           :        -330.37679784 eV
  | Total energy (T->0) per atom                          :        -597.05437911 eV  <-- do not rely on this value for anything but (periodic) metals
  | Electronic free energy per atom                       :        -597.05478210 eV

  Self-consistency convergence accuracy:
  | Change of charge density      : 0.8037E-03
  | Change of sum of eigenvalues  : -.1102E+00 eV
  | Change of total energy        : -.4597E-05 eV

  End self-consistency iteration #     8       :  max(cpu_time)    wall_clock(cpu1)
  | Time for this iteration                    :        0.413 s           0.413 s
  | Charge density update                      :        0.133 s           0.133 s
  | Density mixing                             :        0.006 s           0.006 s
  | Hartree multipole update                   :        0.002 s           0.002 s
  | Hartree multipole summation                :        0.073 s           0.073 s
  | Integration                                :        0.190 s           0.190 s
  | Solution of K.-S. eqns.                    :        0.009 s           0.009 s
  | Total energy evaluation                    :        0.000 s           0.000 s
------------------------------------------------------------

------------------------------------------------------------
          Begin self-consistency iteration #    9

  Date     :  20150727, Time     :  123228.675
------------------------------------------------------------
  Evaluating new KS density.
  Integration grid: deviation in total charge (<rho> - N_e) =  -4.162359E-11
  Pulay mixing of updated and previous charge densities.

  Evaluating partitioned Hartree potential by multipole expansion.
  | Analytical far-field extrapolation by fixed multipoles:
  | Hartree multipole sum: apparent total charge =  -0.234176E-05
  Summing up the Hartree potential.
  Time summed over all CPUs for potential: real work        0.571 s, elapsed        0.577 s
  | RMS charge density error from multipole expansion :   0.118338E-01

  Integrating Hamiltonian matrix: batch-based integration.
  Time summed over all CPUs for integration: real work        1.472 s, elapsed        1.514 s

  Updating Kohn-Sham eigenvalues, eigenvectors, occupation numbers, and Fermi level.
  Solving generalized eigenproblem
  Updating Kohn-Sham eigenvalues and eigenfunctions.
  Solving real generalised eigenvalue problem by standard LAPACK (fast)
  Determining occupation numbers for Kohn-Sham eigenstates.
  | Chemical potential (Fermi level) in eV                 : -.21990729E+01
  | Error in electron count due to remaining E_F inaccuracy: -.41417536E-10
  | Maximum occupation number of highest empty state:  0.00E+00

  Highest occupied state (VBM) at     -8.55651779 eV
  | Occupation number:      2.00000000

  Lowest unoccupied state (CBM) at    -2.19907292 eV
  | Occupation number:      1.00000000

  Overall HOMO-LUMO gap:      6.35744487 eV.

  Total energy components:
  | Sum of eigenvalues            :         -84.98673953 Ha       -2312.60684686 eV
  | XC energy correction          :         -18.89760469 Ha        -514.22998747 eV
  | XC potential correction       :          24.15683070 Ha         657.34080839 eV
  | Free-atom electrostatic energy:         -71.36096886 Ha       -1941.83076194 eV
  | Hartree energy correction     :          -2.50082986 Ha         -68.05104294 eV
  | van der Waals energy corr.    :           0.00000000 Ha           0.00000000 eV
  | Entropy correction            :          -0.00010367 Ha          -0.00282095 eV
  | ---------------------------
  | Total energy                  :        -153.58931225 Ha       -4179.37783082 eV
  | Total energy, T -> 0          :        -153.58941592 Ha       -4179.38065177 eV  <-- do not rely on this value for anything but (periodic) metals
  | Electronic free energy        :        -153.58951959 Ha       -4179.38347272 eV

  Derived energy quantities:
  | Kinetic energy                :         153.30596827 Ha        4171.66764861 eV
  | Electrostatic energy          :        -287.99767582 Ha       -7836.81549196 eV
  | Energy correction for multipole
  | error in Hartree potential    :           0.00024037 Ha           0.00654084 eV
  | Sum of eigenvalues per atom                           :        -330.37240669 eV
  | Total energy (T->0) per atom                          :        -597.05437882 eV  <-- do not rely on this value for anything but (periodic) metals
  | Electronic free energy per atom                       :        -597.05478182 eV

  Self-consistency convergence accuracy:
  | Change of charge density      : 0.2449E-03
  | Change of sum of eigenvalues  : 0.3074E-01 eV
  | Change of total energy        : 0.1975E-05 eV

  End self-consistency iteration #     9       :  max(cpu_time)    wall_clock(cpu1)
  | Time for this iteration                    :        0.414 s           0.414 s
  | Charge density update                      :        0.133 s           0.133 s
  | Density mixing                             :        0.007 s           0.007 s
  | Hartree multipole update                   :        0.002 s           0.002 s
  | Hartree multipole summation                :        0.073 s           0.073 s
  | Integration                                :        0.190 s           0.190 s
  | Solution of K.-S. eqns.                    :        0.008 s           0.008 s
  | Total energy evaluation                    :        0.001 s           0.000 s
------------------------------------------------------------

------------------------------------------------------------
          Begin self-consistency iteration #   10

  Date     :  20150727, Time     :  123229.089
------------------------------------------------------------
  Evaluating new KS density.
  Integration grid: deviation in total charge (<rho> - N_e) =  -4.140688E-11
  Pulay mixing of updated and previous charge densities.

  Evaluating partitioned Hartree potential by multipole expansion.
  | Analytical far-field extrapolation by fixed multipoles:
  | Hartree multipole sum: apparent total charge =  -0.233251E-05
  Summing up the Hartree potential.
  Time summed over all CPUs for potential: real work        0.571 s, elapsed        0.577 s
  | RMS charge density error from multipole expansion :   0.118351E-01

  Integrating Hamiltonian matrix: batch-based integration.
  Time summed over all CPUs for integration: real work        1.472 s, elapsed        1.522 s

  Updating Kohn-Sham eigenvalues, eigenvectors, occupation numbers, and Fermi level.
  Solving generalized eigenproblem
  Updating Kohn-Sham eigenvalues and eigenfunctions.
  Solving real generalised eigenvalue problem by standard LAPACK (fast)
  Determining occupation numbers for Kohn-Sham eigenstates.
  | Chemical potential (Fermi level) in eV                 : -.21985094E+01
  | Error in electron count due to remaining E_F inaccuracy: -.58797411E-11
  | Maximum occupation number of highest empty state:  0.00E+00

  Highest occupied state (VBM) at     -8.55517959 eV
  | Occupation number:      2.00000000

  Lowest unoccupied state (CBM) at    -2.19850942 eV
  | Occupation number:      1.00000000

  Overall HOMO-LUMO gap:      6.35667017 eV.

  Total energy components:
  | Sum of eigenvalues            :         -84.98564358 Ha       -2312.57702438 eV
  | XC energy correction          :         -18.89771451 Ha        -514.23297564 eV
  | XC potential correction       :          24.15697520 Ha         657.34474061 eV
  | Free-atom electrostatic energy:         -71.36096886 Ha       -1941.83076194 eV
  | Hartree energy correction     :          -2.50196063 Ha         -68.08181279 eV
  | van der Waals energy corr.    :           0.00000000 Ha           0.00000000 eV
  | Entropy correction            :          -0.00010367 Ha          -0.00282095 eV
  | ---------------------------
  | Total energy                  :        -153.58931238 Ha       -4179.37783414 eV
  | Total energy, T -> 0          :        -153.58941604 Ha       -4179.38065509 eV  <-- do not rely on this value for anything but (periodic) metals
  | Electronic free energy        :        -153.58951971 Ha       -4179.38347604 eV

  Derived energy quantities:
  | Kinetic energy                :         153.30594095 Ha        4171.66690544 eV
  | Electrostatic energy          :        -287.99753882 Ha       -7836.81176394 eV
  | Energy correction for multipole
  | error in Hartree potential    :           0.00023819 Ha           0.00648138 eV
  | Sum of eigenvalues per atom                           :        -330.36814634 eV
  | Total energy (T->0) per atom                          :        -597.05437930 eV  <-- do not rely on this value for anything but (periodic) metals
  | Electronic free energy per atom                       :        -597.05478229 eV

  Self-consistency convergence accuracy:
  | Change of charge density      : 0.1205E-03
  | Change of sum of eigenvalues  : 0.2982E-01 eV
  | Change of total energy        : -.3321E-05 eV

  End self-consistency iteration #    10       :  max(cpu_time)    wall_clock(cpu1)
  | Time for this iteration                    :        0.416 s           0.416 s
  | Charge density update                      :        0.133 s           0.133 s
  | Density mixing                             :        0.007 s           0.007 s
  | Hartree multipole update                   :        0.003 s           0.002 s
  | Hartree multipole summation                :        0.072 s           0.073 s
  | Integration                                :        0.191 s           0.191 s
  | Solution of K.-S. eqns.                    :        0.008 s           0.008 s
  | Total energy evaluation                    :        0.000 s           0.001 s
------------------------------------------------------------

------------------------------------------------------------
          Begin self-consistency iteration #   11

  Date     :  20150727, Time     :  123229.505
------------------------------------------------------------
  Evaluating new KS density.
  Integration grid: deviation in total charge (<rho> - N_e) =  -5.872636E-12
  Pulay mixing of updated and previous charge densities.

  Evaluating partitioned Hartree potential by multipole expansion.
  | Analytical far-field extrapolation by fixed multipoles:
  | Hartree multipole sum: apparent total charge =  -0.233215E-05
  Summing up the Hartree potential.
  Time summed over all CPUs for potential: real work        0.571 s, elapsed        0.577 s
  | RMS charge density error from multipole expansion :   0.118351E-01

  Integrating Hamiltonian matrix: batch-based integration.
  Time summed over all CPUs for integration: real work        1.472 s, elapsed        1.512 s

[...]

  Highest occupied state (VBM) at     -8.55512138 eV
  | Occupation number:      2.00000000

  Lowest unoccupied state (CBM) at    -2.19858888 eV
  | Occupation number:      1.00000000

  Overall HOMO-LUMO gap:      6.35653250 eV.

  Self-consistency cycle converged.

  End self-consistency iteration #    14       :  max(cpu_time)    wall_clock(cpu1)
  | Time for this iteration                    :        1.057 s           1.058 s
  | Charge density & force component update    :        0.658 s           0.658 s
  | Density mixing                             :        0.007 s           0.008 s
  | Hartree multipole update                   :        0.003 s           0.002 s
  | Hartree multipole summation                :        0.190 s           0.190 s
  | Integration                                :        0.190 s           0.190 s
  | Solution of K.-S. eqns.                    :        0.008 s           0.009 s
  | Total energy evaluation                    :        0.001 s           0.000 s
------------------------------------------------------------
  Obtaining max. number of non-zero basis functions in each batch .
  Evaluating KS electron density on previously omitted grid points.
  Evaluating non-empirical van der Waals correction (Tkatchenko/Scheffler 2009).
  Performing Hirshfeld analysis of fragment charges and moments.
  ----------------------------------------------------------------------
  | Atom     1: O
  |   Hirshfeld charge        :     -0.14005345
  |   Free atom volume        :     23.95238533
  |   Hirshfeld volume        :     24.28961025
  |   Hirshfeld dipole vector :      0.00418164       0.00783171       0.03686989
  |   Hirshfeld dipole moment :      0.03792375
  |   Hirshfeld second moments:      0.03804114      -0.00377226      -0.01024714
  |                                 -0.00377226      -0.01712282      -0.02891450
  |                                 -0.01024714      -0.02891450       0.01363319
  ----------------------------------------------------------------------
  | Atom     2: H
  |   Hirshfeld charge        :     -0.00819166
  |   Free atom volume        :     10.44207651
  |   Hirshfeld volume        :     19.32652927
  |   Hirshfeld dipole vector :      0.02156076      -0.07973540       0.03171643
  |   Hirshfeld dipole moment :      0.08847900
  |   Hirshfeld second moments:     -0.12289561       0.00548808      -0.00667748
  |                                  0.00548808      -0.18771151       0.00020120
  |                                 -0.00667748       0.00020120      -0.11820093
  ----------------------------------------------------------------------
  | Atom     3: H
  |   Hirshfeld charge        :      0.06044919
  |   Free atom volume        :     10.44207651
  |   Hirshfeld volume        :     16.25827553
  |   Hirshfeld dipole vector :     -0.00473057      -0.02863588       0.01291381
  |   Hirshfeld dipole moment :      0.03176726
  |   Hirshfeld second moments:     -0.07204064      -0.02195030      -0.00715791
  |                                 -0.02195030      -0.09906607      -0.00474253
  |                                 -0.00715791      -0.00474253      -0.04652189
  ----------------------------------------------------------------------
  | Atom     4: H
  |   Hirshfeld charge        :      0.08415552
  |   Free atom volume        :     10.44207651
  |   Hirshfeld volume        :     11.90206588
  |   Hirshfeld dipole vector :     -0.01013721      -0.01545879       0.02178177
  |   Hirshfeld dipole moment :      0.02856891
  |   Hirshfeld second moments:      0.01433733       0.01368560      -0.00074165
  |                                  0.01368560       0.00014473      -0.00089707
  |                                 -0.00074165      -0.00089707      -0.00054783
  ----------------------------------------------------------------------
  | Atom     5: O
  |   Hirshfeld charge        :     -0.22910271
  |   Free atom volume        :     23.95238533
  |   Hirshfeld volume        :     22.77246193
  |   Hirshfeld dipole vector :     -0.02519729       0.01581491       0.00068037
  |   Hirshfeld dipole moment :      0.02975698
  |   Hirshfeld second moments:      0.01046148       0.05448025      -0.01245562
  |                                  0.05448025       0.01886522       0.02121822
  |                                 -0.01245562       0.02121822       0.04636622
  ----------------------------------------------------------------------
  | Atom     6: H
  |   Hirshfeld charge        :      0.10839920
  |   Free atom volume        :     10.44207651
  |   Hirshfeld volume        :     11.89442271
  |   Hirshfeld dipole vector :      0.01825004       0.04237150       0.05221975
  |   Hirshfeld dipole moment :      0.06968006
  |   Hirshfeld second moments:      0.01333177       0.01695650      -0.00380331
  |                                  0.01695650      -0.00386289       0.01708184
  |                                 -0.00380331       0.01708184       0.03664127
  ----------------------------------------------------------------------
  | Atom     7: H
  |   Hirshfeld charge        :      0.12433684
  |   Free atom volume        :     10.44207651
  |   Hirshfeld volume        :     10.70473055
  |   Hirshfeld dipole vector :     -0.06126859      -0.04927244       0.01707839
  |   Hirshfeld dipole moment :      0.08045672
  |   Hirshfeld second moments:      0.02447815       0.02186168      -0.00363868
  |                                  0.02186168       0.04217438       0.01559778
  |                                 -0.00363868       0.01559778       0.04668600
  ----------------------------------------------------------------------


  Total energy components:
  | Sum of eigenvalues            :         -84.98569553 Ha       -2312.57843807 eV
  | XC energy correction          :         -18.89770925 Ha        -514.23283255 eV
  | XC potential correction       :          24.15696870 Ha         657.34456360 eV
  | Free-atom electrostatic energy:         -71.36096886 Ha       -1941.83076194 eV
  | Hartree energy correction     :          -2.50190745 Ha         -68.08036557 eV
  | van der Waals energy corr.    :          -0.00031197 Ha          -0.00848917 eV
  | Entropy correction            :          -0.00010367 Ha          -0.00282095 eV
  | ---------------------------
  | Total energy                  :        -153.58962436 Ha       -4179.38632370 eV
  | Total energy, T -> 0          :        -153.58972803 Ha       -4179.38914465 eV  <-- do not rely on this value for anything but (periodic) metals
  | Electronic free energy        :        -153.58983170 Ha       -4179.39196560 eV

  Derived energy quantities:
  | Kinetic energy                :         153.30593740 Ha        4171.66680872 eV
  | Electrostatic energy          :        -287.99754054 Ha       -7836.81181069 eV
  | Energy correction for multipole
  | error in Hartree potential    :           0.00023751 Ha           0.00646290 eV
  | Sum of eigenvalues per atom                           :        -330.36834830 eV
  | Total energy (T->0) per atom                          :        -597.05559209 eV  <-- do not rely on this value for anything but (periodic) metals
  | Electronic free energy per atom                       :        -597.05599509 eV

  atomic forces [eV/Ang]:
  -----------------------
  atom #    1
   Hellmann-Feynman + Multipole  : -.224457E+01 -.653313E+01 -.893940E+01
   Pulay + GGA                   : 0.231034E+01 0.770674E+01 0.724705E+01
   Van der Waals               : 0.213681E-02 0.676272E-03 -.732973E-02
   ----------------------------------------------------------------
   Total forces(   1)            : 0.679058E-01 0.117428E+01 -.169968E+01
  atom #    2
   Hellmann-Feynman + Multipole  : 0.457800E+00 -.996926E+00 0.374743E+00
   Pulay + GGA                   : -.889247E-01 0.154779E+00 -.450013E-01
   Van der Waals               : 0.224334E-03 0.177499E-02 -.528952E-02
   ----------------------------------------------------------------
   Total forces(   2)            : 0.369100E+00 -.840372E+00 0.324453E+00
  atom #    3
   Hellmann-Feynman + Multipole  : -.340491E+00 -.198424E+00 0.252423E-01
   Pulay + GGA                   : 0.165568E+00 0.392458E-01 0.244953E-01
   Van der Waals               : 0.144884E-02 0.144830E-03 -.290118E-02
   ----------------------------------------------------------------
   Total forces(   3)            : -.173474E+00 -.159033E+00 0.468364E-01
  atom #    4
   Hellmann-Feynman + Multipole  : -.933645E-01 -.971058E-01 0.985156E+00
   Pulay + GGA                   : -.323894E-01 -.791341E-02 0.688819E-01
   Van der Waals               : 0.482368E-04 0.753293E-05 -.182941E-03
   ----------------------------------------------------------------
   Total forces(   4)            : -.125706E+00 -.105012E+00 0.105386E+01
  atom #    5
   Hellmann-Feynman + Multipole  : 0.740722E+01 -.570776E+01 -.801015E+01
   Pulay + GGA                   : -.761890E+01 0.423256E+01 0.690386E+01
   Van der Waals               : -.838081E-03 -.100923E-02 0.341975E-02
   ----------------------------------------------------------------
   Total forces(   5)            : -.212518E+00 -.147622E+01 -.110287E+01
  atom #    6
   Hellmann-Feynman + Multipole  : -.104559E+00 0.879845E+00 0.960243E+00
   Pulay + GGA                   : 0.418525E-01 0.100623E+00 0.104846E+00
   Van der Waals               : -.959446E-03 0.185688E-03 0.741769E-02
   ----------------------------------------------------------------
   Total forces(   6)            : -.636657E-01 0.980654E+00 0.107251E+01
  atom #    7
   Hellmann-Feynman + Multipole  : 0.267863E+00 0.493555E+00 0.249848E+00
   Pulay + GGA                   : -.123299E+00 -.667626E-01 0.463126E-01
   Van der Waals               : -.206069E-02 -.178009E-02 0.486593E-02
   ----------------------------------------------------------------
   Total forces(   7)            : 0.142504E+00 0.425013E+00 0.301027E+00
  Timings for vdw_correction_hirshfeld (Tkatchenko-Scheffler 2009):
  | CPU time:        1.057 s, Wall clock time:        1.058 s.
  Removing unitary transformations (pure translations, rotations) from forces on atoms.
  Atomic forces before filtering:
  | Net force on center of mass :  0.414582E-02 -.684619E-03 -.387231E-02 eV/A
  | Net torque on center of mass:  0.175528E-01 -.581274E-02 -.591482E-02 eV
  Atomic forces after filtering:
  | Net force on center of mass :  -.223008E-16 0.178406E-15 0.446015E-16 eV/A
  | Net torque on center of mass:  0.188817E-15 -.188817E-15 0.259623E-15 eV
 
  Energy and forces in a compact form:
  | Total energy uncorrected      :         -0.417938632369958E+04 eV
  | Total energy corrected        :         -0.417938914464750E+04 eV  <-- do not rely on this value for anything but (periodic) metals
  | Electronic free energy        :         -0.417939196559542E+04 eV
  Total atomic forces (unitary forces cleaned) [eV/Ang]:
  |   1          0.677215568657105E-01          0.117279699502131E+01         -0.169896941130483E+01
  |   2          0.366517632726567E+00         -0.843983549603873E+00          0.323350569938997E+00
  |   3         -0.174391328695220E+00         -0.157743072504696E+00          0.472598957367548E-01
  |   4         -0.125782123430782E+00         -0.105580498603123E+00          0.105471022518314E+01
  |   5         -0.212352388245223E+00         -0.147453455639448E+01         -0.110167468673949E+01
  |   6         -0.656037630563639E-01          0.984024510901023E+00          0.107239330869613E+01
  |   7          0.143890413835311E+00          0.425020171183840E+00          0.302930098489290E+00
 
  ------------------------------------ 
  Start decomposition of the XC Energy 
  ------------------------------------ 
  Hartree-Fock part   :          0.000000000 Ha              0.000000000 eV
  ------------------------------------ 
  X Energy            :        -18.224189468 Ha           -495.905426828 eV
  C Energy GGA        :         -0.673519781 Ha            -18.327405726 eV
  Total XC Energy     :        -18.897709249 Ha           -514.232832554 eV
  LDA X and C from self-consistent density 
  X Energy LDA        :        -16.423984185 Ha           -446.919348671 eV
  C Energy LDA        :         -1.357698471 Ha            -36.944855134 eV
  ------------------------------------ 
  End decomposition of the XC Energy 
  ------------------------------------ 
  Performing Hirshfeld analysis of fragment charges and moments.
  ----------------------------------------------------------------------
  | Atom     1: O
  |   Hirshfeld charge        :     -0.14005345
  |   Free atom volume        :     23.95238533
  |   Hirshfeld volume        :     24.28961025
  |   Hirshfeld dipole vector :      0.00418164       0.00783171       0.03686989
  |   Hirshfeld dipole moment :      0.03792375
  |   Hirshfeld second moments:      0.03804114      -0.00377226      -0.01024714
  |                                 -0.00377226      -0.01712282      -0.02891450
  |                                 -0.01024714      -0.02891450       0.01363319
  ----------------------------------------------------------------------
  | Atom     2: H
  |   Hirshfeld charge        :     -0.00819166
  |   Free atom volume        :     10.44207651
  |   Hirshfeld volume        :     19.32652927
  |   Hirshfeld dipole vector :      0.02156076      -0.07973540       0.03171643
  |   Hirshfeld dipole moment :      0.08847900
  |   Hirshfeld second moments:     -0.12289561       0.00548808      -0.00667748
  |                                  0.00548808      -0.18771151       0.00020120
  |                                 -0.00667748       0.00020120      -0.11820093
  ----------------------------------------------------------------------
  | Atom     3: H
  |   Hirshfeld charge        :      0.06044919
  |   Free atom volume        :     10.44207651
  |   Hirshfeld volume        :     16.25827553
  |   Hirshfeld dipole vector :     -0.00473057      -0.02863588       0.01291381
  |   Hirshfeld dipole moment :      0.03176726
  |   Hirshfeld second moments:     -0.07204064      -0.02195030      -0.00715791
  |                                 -0.02195030      -0.09906607      -0.00474253
  |                                 -0.00715791      -0.00474253      -0.04652189
  ----------------------------------------------------------------------
  | Atom     4: H
  |   Hirshfeld charge        :      0.08415552
  |   Free atom volume        :     10.44207651
  |   Hirshfeld volume        :     11.90206588
  |   Hirshfeld dipole vector :     -0.01013721      -0.01545879       0.02178177
  |   Hirshfeld dipole moment :      0.02856891
  |   Hirshfeld second moments:      0.01433733       0.01368560      -0.00074165
  |                                  0.01368560       0.00014473      -0.00089707
  |                                 -0.00074165      -0.00089707      -0.00054783
  ----------------------------------------------------------------------
  | Atom     5: O
  |   Hirshfeld charge        :     -0.22910271
  |   Free atom volume        :     23.95238533
  |   Hirshfeld volume        :     22.77246193
  |   Hirshfeld dipole vector :     -0.02519729       0.01581491       0.00068037
  |   Hirshfeld dipole moment :      0.02975698
  |   Hirshfeld second moments:      0.01046148       0.05448025      -0.01245562
  |                                  0.05448025       0.01886522       0.02121822
  |                                 -0.01245562       0.02121822       0.04636622
  ----------------------------------------------------------------------
  | Atom     6: H
  |   Hirshfeld charge        :      0.10839920
  |   Free atom volume        :     10.44207651
  |   Hirshfeld volume        :     11.89442271
  |   Hirshfeld dipole vector :      0.01825004       0.04237150       0.05221975
  |   Hirshfeld dipole moment :      0.06968006
  |   Hirshfeld second moments:      0.01333177       0.01695650      -0.00380331
  |                                  0.01695650      -0.00386289       0.01708184
  |                                 -0.00380331       0.01708184       0.03664127
  ----------------------------------------------------------------------
  | Atom     7: H
  |   Hirshfeld charge        :      0.12433684
  |   Free atom volume        :     10.44207651
  |   Hirshfeld volume        :     10.70473055
  |   Hirshfeld dipole vector :     -0.06126859      -0.04927244       0.01707839
  |   Hirshfeld dipole moment :      0.08045672
  |   Hirshfeld second moments:      0.02447815       0.02186168      -0.00363868
  |                                  0.02186168       0.04217438       0.01559778
  |                                 -0.00363868       0.01559778       0.04668600
  ----------------------------------------------------------------------


------------------------------------------------------------------------------
  Final output of selected total energy values:

  The following output summarizes some interesting total energy values
  at the end of a run (AFTER all relaxation, molecular dynamics, etc.).

  | Total energy of the DFT / Hartree-Fock s.c.f. calculation      :          -4179.386323700 eV
  | Final zero-broadening corrected energy (caution - metals only) :          -4179.389144648 eV
  | For reference only, the value of 1 Hartree used in FHI-aims is :             27.211384500 eV

  Before relying on these values, please be sure to understand exactly which
  total energy value is referred to by a given number. Different objects may
  all carry the same name 'total energy'. Definitions:

  Total energy of the DFT / Hartree-Fock s.c.f. calculation:
  | Note that this energy does not include ANY quantities calculated after the
  | s.c.f. cycle, in particular not ANY RPA, MP2, etc. many-body perturbation terms.

  Final zero-broadening corrected energy:
  | For metallic systems only, a broadening of the occupation numbers at the Fermi
  | level can be extrapolated back to zero broadening by an electron-gas inspired
  | formula. For all systems that are not real metals, this value can be
  | meaningless and should be avoided.

------------------------------------------------------------------------------

------------------------------------------------------------
          Leaving FHI-aims.
          Date     :  20150727, Time     :  123232.612

          Computational steps:
          | Number of self-consistency cycles          :           14

          Detailed time accounting                     :  max(cpu_time)    wall_clock(cpu1)
          | Total time                                 :        8.248 s           8.260 s
          | Preparation time                           :        0.173 s           0.572 s
          | Grid partitioning                          :        0.057 s           0.056 s
          | Preloading free-atom quantities on grid    :        0.014 s           0.013 s
          | Free-atom superposition energy             :        0.019 s           0.020 s
          | Total time for integrations                :        2.950 s           2.952 s
          | Total time for solution of K.-S. equations :        0.152 s           0.153 s
          | Total time for density & force components  :        2.918 s           2.919 s
          | Total time for mixing                      :        0.074 s           0.078 s
          | Total time for Hartree multipole update    :        0.035 s           0.035 s
          | Total time for Hartree multipole sum       :        1.370 s           1.367 s
          | Total time for total energy evaluation     :        0.007 s           0.006 s
          | Total time for scaled ZORA corrections     :        0.000 s           0.000 s
          | Total time for TS (2009) vdW correction    :        0.013 s           0.013 s

          Have a nice day.
------------------------------------------------------------
