  MPI-parallelism will be employed.
------------------------------------------------------------
          Invoking FHI-aims ...
          Version 081213
          Compiled on 2013/08/29 at 17:41:06 on host generoso.

          When using FHI-aims, please cite the following reference:

          Volker Blum, Ralf Gehrke, Felix Hanke, Paula Havu,
          Ville Havu, Xinguo Ren, Karsten Reuter, and Matthias Scheffler,
          'Ab Initio Molecular Simulations with Numeric Atom-Centered Orbitals: FHI-aims',
          Computer Physics Communications 180, 2175-2196 (2009)

          For any questions about FHI-aims, please visit the aimsclub website
          with its forums and wiki. Contributions to both the forums and the
          wiki are warmly encouraged - they are for you, and everyone is welcome there.

------------------------------------------------------------

  Date     :  20150727, Time     :  123109.742
  Time zero on CPU 1             :   0.419930000000000E-01  s.
  Internal wall clock time zero  :           207232269.742  s.

  Using        8 parallel tasks.
  Task        0 on host gen59 reporting.
  Task        1 on host gen59 reporting.
  Task        2 on host gen59 reporting.
  Task        3 on host gen59 reporting.
  Task        4 on host gen59 reporting.
  Task        5 on host gen59 reporting.
  Task        6 on host gen59 reporting.
  Task        7 on host gen59 reporting.

  Performing system and environment tests:
  | Environment variable OMP_NUM_THREADS correctly set to 1.
  | Checking for scalapack...
  | No scalapack compiled in.

  Obtaining array dimensions for all initial allocations:
  
  -----------------------------------------------------------------------
  Parsing control.in (first pass over file, find array dimensions only).
  The contents of control.in will be repeated verbatim below
  unless switched off by setting 'verbatim_writeout .false.' .
  in the first line of control.in .
  -----------------------------------------------------------------------
  
  #########################################################################################
  #
  #  Volker Blum, FHI 2008 : Test run input file control.in
  #
  #########################################################################################
  #
  #  Physical model
  #
    xc                 rpbe
    spin               none
    relativistic       atomic_zora scalar
    charge             0.
   vdw_correction_hirshfeld
  #
  #  SCF convergence
  #
    occupation_type    gaussian 0.01
    mixer              pulay
      n_max_pulay        10
      charge_mix_param   0.1
    sc_accuracy_rho    5E-5
    sc_accuracy_eev    5E-3
    sc_accuracy_etot   5E-6
    sc_iter_limit      3000
  #
  #  Eigenvalue solver
  #
    KS_method          lapack
      empty_states       8
      basis_threshold    0.e-5
  #
  #  Efficiency
  #
  #   all previous settings are now default, except stratmann still
  #   undecided. Continue to handle stratmann with care, if at all.
  #
  #  partition_type stratmann
    partition_type rho_r2
  #  hartree_partition_type stratmann
  #
  #  Oprions for large clusters (100's of atoms: memory saving / better scaling)
  #
  # for periodic systems:
  #
    density_update_method orbital
    packed_matrix_format none
  #  k_grid 6 6 6
  #  output k_eigenvalue 1
  #  distributed_spline_storage .true.
  #
  #  Relaxation
  #
  #  relax_geometry   bfgs 5.e-3
    sc_accuracy_forces 5.E-4
    final_forces_cleaned .true.
  #
  #  Output options
  #
  #  output mulliken
    output Hirshfeld
  #  output dipole
  
  #harmonic_length_scale 0.001
  
  ################################################################################
  #
  #  FHI-aims code project
  #  VB, Fritz-Haber Institut, 2007
  #
  #  Suggested "safe" defaults for H atom (to be pasted into control.in file)
  #  Basis constructed for a non-relativistic H2 molecule using the
  #  PW-LDA functional.
  #
  ################################################################################
    species        H
  #     global species definitions
      nucleus             1
      cut_pot             4.0  2.0  1.0
      cut_free_atom       finite 8.0
      logarithmic         0.00010000 100.00  1.0123
      basis_dep_cutoff    1d-4  # 1d-4 is safe default - please check 5d-4 if you wish!
      radial_base         24 7.0
      radial_multiplier   2
      angular_grids       specified
        division   0.2783  110
        division   0.3822  194
        division   0.5626  302
  #      division   0.5922  434
  #      division   0.6227  590
  #      division   0.7206  770
        outer_grid  302
      l_hartree           4
  ################################################################################
  #
  #  Definition of "minimal" basis
  #
  ################################################################################
  #     valence basis states
      valence      1  s   1.
  #     ion occupancy
      ion_occ      1  s   0.5
  ################################################################################
  #
  #  Suggested additional basis functions. For production calculations,
  #  uncomment them one after another (the most important basis functions are
  #  listed first).
  #
  ################################################################################
  #  "First tier" - improvements: -1014.90 meV to -62.69 meV
       hydro 2 s 2.1
       hydro 2 p 3.5
  #  "Second tier" - improvements: -12.89 meV to -1.83 meV
       hydro 1 s 0.85
       hydro 2 p 3.7
       hydro 2 s 1.2
       hydro 3 d 7
  #  "Third tier" - improvements: -0.25 meV to -0.12 meV
  #     hydro 4 f 11.2
  #     hydro 3 p 4.8
  #     hydro 4 d 9
  #     hydro 3 s 3.2
  
  ################################################################################
  #
  #  FHI-aims code project
  #  VB, Fritz-Haber Institut, 2007
  #
  #  Suggested "safe" defaults for O atom (to be pasted into control.in file)
  #  All values have been tested for a non-relativistic, non-spinpolarized O2
  #  molecule using the PW-LDA functional. Validity for PBE is expected.
  #
  #  Constructed for dimers: 1.0 A, 1.208 A, 1.5 A, 2.0 A, 3.0 A
  #
  ################################################################################
    species        O
  #     global species definitions
      nucleus             8
      mass                15.9994
      l_hartree           4
      cut_pot             4.0  2.0  1.0
      cut_free_atom       finite 8.0
      basis_dep_cutoff    1d-4  # 1d-4 is safe default - please check 5d-4 if you wish!
      logarithmic         0.00010000 100.00  1.0123
      radial_base         36 7.0
      radial_multiplier   2
       angular_grids specified
        division   0.4087  110
        division   0.5181  194
        division   0.6184  302
  #      division   0.7315  434
  #      division   0.7934  590
  #      division   0.9656  770
  #      division   1.4041  974
  #      outer_grid 974
        outer_grid 302
  ################################################################################
  #
  #  Definition of "minimal" basis
  #
  ################################################################################
  #     valence basis states
      valence      2  s   2.
      valence      2  p   4.
  #     ion occupancy
      ion_occ      2  s   1.
      ion_occ      2  p   3.
  ################################################################################
  #
  #  Suggested additional basis functions. For production calculations,
  #  uncomment them one after another (the most important basis functions are
  #  listed first).
  #
  ################################################################################
  #  "First tier" - improvements: -699.05 meV to -159.38 meV
       hydro 2 p 1.8
       hydro 3 d 7.6
       hydro 3 s 6.4
  #  "Second tier" - improvements: -49.91 meV to -5.39 meV
       hydro 4 f 11.6
       hydro 3 p 6.2
       hydro 3 d 5.6
       hydro 5 g 17.6
       hydro 1 s 0.75
  #  "Third tier" - improvements: -2.83 meV to -0.50 meV
  #     ionic 2 p auto
  #     hydro 4 f 10.8
  #     hydro 4 d 4.7
  #     hydro 2 s 6.8
  #  "Fourth tier" - improvements: -0.40 meV to -0.12 meV
  #     hydro 3 p 5
  #     hydro 3 s 3.3
  #     hydro 5 g 15.6
  #     hydro 4 f 17.6
  #     hydro 4 d 14
  # Further basis functions - -0.08 meV and below
  #     hydro 3 s 2.1
  #     hydro 4 d 11.6
  #     hydro 3 p 16
  #     hydro 2 s 17.2
  
  
  -----------------------------------------------------------------------
  Completed first pass over input file control.in .
  -----------------------------------------------------------------------
  
  
  -----------------------------------------------------------------------
  Parsing geometry.in (first pass over file, find array dimensions only).
  The contents of geometry.in will be repeated verbatim below
  unless switched off by setting 'verbatim_writeout .false.' .
  in the first line of geometry.in .
  -----------------------------------------------------------------------
  
  atom      -4.053030000      0.065001000     -1.525160000  O
  atom      -4.566710000      0.974813000     -1.912820000  H
  atom      -3.067820000      0.330172000     -1.477310000  H
  atom      -4.370360000     -0.049164000     -0.572274000  H
  atom      -4.581760000     -0.256435000      0.939478000  O
  atom      -4.349860000      0.471090000      1.504340000  H
  atom      -5.393870000     -0.726611000      1.228070000  H
  atom      -1.975360000      2.858040000      0.453140000  O
  atom      -1.223550000      3.375850000      0.786238000  H
  atom      -2.537520000      2.567960000      1.156120000  H
  
  -----------------------------------------------------------------------
  Completed first pass over input file geometry.in .
  -----------------------------------------------------------------------
  
 
  Basic array size parameters: 
  | Number of species                 :        2
  | Number of atoms                   :       10
  | Max. basis fn. angular momentum   :        4
  | Max. atomic/ionic basis occupied n:        2
  | Max. number of basis fn. types    :        2
  | Max. radial fns per species/type  :        8
  | Max. logarithmic grid size        :     1301
  | Max. radial integration grid size :       73
  | Max. angular integration grid size:      302
  | Max. angular grid division number :        8
  | Radial grid for Hartree potential :     1301
  | Number of spin channels           :        1

------------------------------------------------------------
          Reading file control.in.
------------------------------------------------------------
  XC: Using RPBE gradient-corrected functionals.
  Spin treatment: No spin polarisation.
  Scalar relativistic treatment of kinetic energy: on-site free-atom approximation to ZORA.
  Charge =   0.000000E+00: Neutral system requested explicitly.
  Using non-empirical van der Waals correction (Hirshfeld partitioning):
  Occupation type: Gaussian broadening, width =   0.100000E-01 eV.
  Using pulay charge density mixing.
  Pulay mixing - number of memorized iterations:   10
  Charge density mixing - mixing parameter:     0.1000
  Convergence accuracy of self-consistent charge density: 0.5000E-04
  Convergence accuracy of sum of eigenvalues: 0.5000E-02
  Convergence accuracy of total energy: 0.5000E-05
  Maximum number of s.-c. iterations  :  3000
  Kohn-Sham eigenvalues and eigenfunctions calculated by lapack diagonalisation (D&C).
  Number of empty states per atom:        8
  Threshold for basis singularities: 0.0000E+00
  Partition function in integrals calculations: rho / r^2
 Using packed matrix format           0
  Convergence accuracy of forces: 0.5000E-03
  Cleaning forces before final output.
  Hirshfeld charge analysis will be performed.
 
  Reading configuration options for species H                   .
  | Found nuclear charge :   1.0000
  | Found cutoff potl. onset [A], width [A], scale factor :    4.00000    2.00000    1.00000
  | Found cutoff specification for free atom: Cutoff potential begins at    8.00000 A.
  | Found logarithmic grid data [bohr] : 0.1000E-03 0.1000E+03 0.1012E+01
  | Threshold for basis-dependent cutoff potential is   0.100000E-03
  | Found data for basic radial integration grid :    24 points, outermost radius =    7.000 A
  | Found multiplier for basic radial grid :   2
  | Found angular grid specification: user-specified.
  | Specified grid contains     4 separate shells.
  | Check grid settings after all constraints further below.
  | Found l_max for Hartree potential  :   4
  | Found free-atom valence shell :  1 s   1.000
  | No ionic wave fns used. Skipping ion_occ.
  | Found hydrogenic basis function :  2 s   2.100
  | Found hydrogenic basis function :  2 p   3.500
  | Found hydrogenic basis function :  1 s   0.850
  | Found hydrogenic basis function :  2 p   3.700
  | Found hydrogenic basis function :  2 s   1.200
  | Found hydrogenic basis function :  3 d   7.000
  Species H                   : Missing cutoff potential type.
  Defaulting to exp(1/x)/(1-x)^2 type cutoff potential.
  Species H : On-site basis accuracy parameter (for Gram-Schmidt orthonormalisation) not specified.
  Using default value basis_acc =  0.1000000E-03.
  Species H                   : Using default innermost maximum threshold i_radial=  2 for radial functions.
  Species H                   : Basic radial grid will be enhanced according to radial_multiplier =   2, to contain    49 grid points.
 
  Reading configuration options for species O                   .
  | Found nuclear charge :   8.0000
  | Found atomic mass :    15.9994000000000      amu
  | Found l_max for Hartree potential  :   4
  | Found cutoff potl. onset [A], width [A], scale factor :    4.00000    2.00000    1.00000
  | Found cutoff specification for free atom: Cutoff potential begins at    8.00000 A.
  | Threshold for basis-dependent cutoff potential is   0.100000E-03
  | Found logarithmic grid data [bohr] : 0.1000E-03 0.1000E+03 0.1012E+01
  | Found data for basic radial integration grid :    36 points, outermost radius =    7.000 A
  | Found multiplier for basic radial grid :   2
  | Found angular grid specification: user-specified.
  | Specified grid contains     4 separate shells.
  | Check grid settings after all constraints further below.
  | Found free-atom valence shell :  2 s   2.000
  | Found free-atom valence shell :  2 p   4.000
  | No ionic wave fns used. Skipping ion_occ.
  | No ionic wave fns used. Skipping ion_occ.
  | Found hydrogenic basis function :  2 p   1.800
  | Found hydrogenic basis function :  3 d   7.600
  | Found hydrogenic basis function :  3 s   6.400
  | Found hydrogenic basis function :  4 f  11.600
  | Found hydrogenic basis function :  3 p   6.200
  | Found hydrogenic basis function :  3 d   5.600
  | Found hydrogenic basis function :  5 g  17.600
  | Found hydrogenic basis function :  1 s   0.750
  Species O                   : Missing cutoff potential type.
  Defaulting to exp(1/x)/(1-x)^2 type cutoff potential.
  Species O : On-site basis accuracy parameter (for Gram-Schmidt orthonormalisation) not specified.
  Using default value basis_acc =  0.1000000E-03.
  Species O                   : Using default innermost maximum threshold i_radial=  2 for radial functions.
  Species O                   : Basic radial grid will be enhanced according to radial_multiplier =   2, to contain    73 grid points.
 
  Finished reading input file 'control.in'. Consistency checks are next.
 
  Target number of points in a grid batch is not set. Defaulting to  100
  Method for grid partitioning is not set. Defaulting to parallel hash+maxmin partitioning.
  Batch size limit is not set. Defaulting to    200
  By default, will store active basis functions for each batch.
  If in need of memory, prune_basis_once .false. can be used to disable this option.
  communication_type for Hartree potential was not specified.
  Defaulting to calc_hartree .
  Pulay mixer: Number of initial linear mixing iterations not set.
  Defaulting to    0 iterations.
  Work space size for distributed Hartree potential not set.
  Defaulting to   0.200000E+03 MB.
  Algorithm-dependent basis array size parameters:
  | n_max_pulay                         :       10
  Geometry relaxation not requested: no relaxation will be performed.
  Handling of forces: Unphysical translation and rotation will be removed from forces.
  No accuracy limit for integral partition fn. given. Defaulting to 0.1000E-14.
  No threshold value for u(r) in integrations given. Defaulting to 0.1000E-05.
  No accuracy for occupation numbers given. Defaulting to 0.1000E-07.
  No threshold value for occupation numbers given. Defaulting to 0.0000E+00.
  No accuracy for fermi level given. Defaulting to 0.1000E-19.
  Maximum # of iterations to find E_F not set. Defaulting to  200.
  Will not use alltoall communication since running on < 1024 CPUs.
  Partitioning for Hartree potential was not defined. Using partition_type for integrals.
  | Reporting present value of keyword multip_moments_threshold  :       0.10000000E-09
  | This value may affect high angular momentum components of the Hartree potential in periodic systems.
  No q(lm)/r^(l+1) cutoff set for long-range Hartree potential.
  | Using default value of  0.100000E-09 .
  | Verify using the multipole_threshold keyword.
  Defaulting to new monopole extrapolation.
  Density update method: Loop over occupied states selected for charge density update.
------------------------------------------------------------


------------------------------------------------------------
          Reading geometry description geometry.in.
------------------------------------------------------------
  Input structure read successfully.
  The structure contains       10 atoms,  and a total of         31.000 electrons.

  Input geometry:
  | No unit cell requested.
  | Atomic structure:
  |       Atom                x [A]            y [A]            z [A]
  |    1: Species O             -4.053030         0.065001        -1.525160
  |    2: Species H             -4.566710         0.974813        -1.912820
  |    3: Species H             -3.067820         0.330172        -1.477310
  |    4: Species H             -4.370360        -0.049164        -0.572274
  |    5: Species O             -4.581760        -0.256435         0.939478
  |    6: Species H             -4.349860         0.471090         1.504340
  |    7: Species H             -5.393870        -0.726611         1.228070
  |    8: Species O             -1.975360         2.858040         0.453140
  |    9: Species H             -1.223550         3.375850         0.786238
  |   10: Species H             -2.537520         2.567960         1.156120
  |

  | The smallest distance between any two atoms is         0.94570141 AA.
  |
  | The first atom of this pair is atom number                      8 .
  | The second atom of this pair is atom number                    10 .

  Structure-dependent array size parameters: 
  | Maximum number of distinct radial functions  :       18
  | Maximum number of basis functions            :      222
  | Number of Kohn-Sham states (occupied + empty):       56
------------------------------------------------------------

------------------------------------------------------------
          Preparing all fixed parts of the calculation.
------------------------------------------------------------
  Determining machine precision:
    2.225073858507201E-308
  Setting up grids for atomic and cluster calculations.

  Creating wave function, potential, and density for free atoms.

  Species: H

  List of occupied orbitals and eigenvalues:
    n    l              occ      energy [Ha]    energy [eV]
    1    0           1.0000        -0.241408        -6.5691


  Species: O

  List of occupied orbitals and eigenvalues:
    n    l              occ      energy [Ha]    energy [eV]
    1    0           2.0000       -18.944147      -515.4965
    2    0           2.0000        -0.883529       -24.0421
    2    1           4.0000        -0.330176        -8.9845

  Creating fixed part of basis set: Ionic, confined, hydrogenic.
 
  H                    hydrogenic:
 
  List of hydrogenic basis orbitals: 
    n    l      effective z      eigenvalue [eV]  inner max. [A]     outer max. [A]     outer radius [A]   
    2    0         2.100000       -14.9965           0.193241           1.317192           5.372934
    2    1         3.500000       -41.6672           0.602363           0.602363           4.056010
    1    0         0.850000        -9.8292           0.624864           0.624864           5.372934
    2    1         3.700000       -46.5653           0.573616           0.573616           3.909951
    2    0         1.200000        -4.5995           0.334977           2.228160           5.505921
    3    2         7.000000       -74.0753           0.680692           0.680692           3.769152
 
 
  O                    hydrogenic:
 
  List of hydrogenic basis orbitals: 
    n    l      effective z      eigenvalue [eV]  inner max. [A]     outer max. [A]     outer radius [A]   
    2    1         1.800000       -11.0118           1.178546           1.178546           5.432516
    3    2         7.600000       -87.3182           0.624117           0.624117           3.541422
    3    0         6.400000       -61.9209           0.061166           1.081887           4.306510
    4    3        11.600000      -114.4238           0.731621           0.731621           3.584982
    3    1         6.200000       -58.1113           0.255677           1.030255           4.306510
    3    2         5.600000       -47.4081           0.847222           0.847222           4.413102
    5    4        17.600000      -168.5799           0.749730           0.749730           3.372413
    1    0         0.750000        -7.6499           0.705275           0.705275           5.366508
 

  Adding cutoff potential to free-atom effective potential.
  Creating atomic-like basis functions for current effective potential.

  Species H                   :

  List of atomic basis orbitals and eigenvalues:
    n    l      energy [Ha]    energy [eV]    outer radius [A]
    1    0        -0.241374        -6.5681       5.372934


  Species O                   :

  List of atomic basis orbitals and eigenvalues:
    n    l      energy [Ha]    energy [eV]    outer radius [A]
    1    0       -18.944147      -515.4965       1.415745
    2    0        -0.883529       -24.0421       5.048305
    2    1        -0.330173        -8.9845       5.301302

  Assembling full basis from fixed parts.
  | Species H :   atomic orbital   1 s accepted.
  | Species H :    hydro orbital   2 s accepted.
  | Species H :    hydro orbital   1 s accepted.
  | Species H :    hydro orbital   2 s accepted.
  | Species H :    hydro orbital   2 p accepted.
  | Species H :    hydro orbital   2 p accepted.
  | Species H :    hydro orbital   3 d accepted.
  | Species O :   atomic orbital   1 s accepted.
  | Species O :    hydro orbital   3 s accepted.
  | Species O :   atomic orbital   2 s accepted.
  | Species O :    hydro orbital   1 s accepted.
  | Species O :    hydro orbital   3 p accepted.
  | Species O :   atomic orbital   2 p accepted.
  | Species O :    hydro orbital   2 p accepted.
  | Species O :    hydro orbital   3 d accepted.
  | Species O :    hydro orbital   3 d accepted.
  | Species O :    hydro orbital   4 f accepted.
  | Species O :    hydro orbital   5 g accepted.
 
  Basis size parameters after reduction:
  | Total number of radial functions:       18
  | Total number of basis functions :      222
 
  Testing on-site integration grid accuracy.
  |  Species  Function  <phi|h_atom|phi> (log., in eV)  <phi|h_atom|phi> (rad., in eV)
           1        1                 -6.5683835025                 -6.5684759159
           1        2                 13.3711789951                 13.3708738703
           1        3                 23.6590910787                 23.6532055418
           1        4                 16.2963827186                 16.1870710655 ***
           1        5                 28.7627214838                 28.7627215090
           1        6                 59.5965249172                 59.5965950857
           1        7                 60.2220506392                 60.2220503827
           2        8               -515.4964576505               -515.4964530710
           2        9                 15.3030791347                 15.3030722972
           2       10                -21.7296094581                -21.7296135470
           2       11                 14.2969371730                 14.2969701621
           2       12                 21.0679693190                 21.0679697493
           2       13                 -2.3833606469                 -2.3833613176
           2       14                 13.7067136422                 13.7066766629
           2       15                 45.8013116808                 45.8013116965
           2       16                 52.2309815402                 52.2309831494
           2       17                 85.4120732416                 85.4120732763
           2       18                142.1019167745                142.1019167817
 * Note: Onsite integrals marked "***" above are less accurate than
 * onsite_accuracy_threshold =    0.03000 eV. Usually, this is harmless.
 * When in doubt, tighten the "radial" and/or "radial_multiplier" flags to check.

  Preparing densities etc. for the partition functions (integrals / Hartree potential).

  Preparations completed.
  max(cpu_time)          :      0.170 s.
  Wall clock time (cpu1) :      0.638 s.
------------------------------------------------------------

------------------------------------------------------------
          Begin self-consistency loop: Initialization.

          Date     :  20150727, Time     :  123110.403
------------------------------------------------------------

  Initializing index lists of integration centers etc. from given atomic structure:
  | Number of centers in hartree potential         :        10
  | Number of centers in hartree multipole         :        10
  | Number of centers in electron density summation:        10
  | Number of centers in basis integrals           :        10
  | Number of centers in integrals                 :        10
  Partitioning the integration grid into batches with parallel hashing+maxmin method.
  | Number of batches:     1481
  | Maximal batch size:     200
  | Minimal batch size:      49
  | Average batch size:      87.522
  | Standard deviation of batch sizes:      28.867

  Integration load balanced across     8 MPI tasks.
  Work distribution over tasks is as follows:
  Task     0 has      16196 integration points.
  Task     1 has      16171 integration points.
  Task     2 has      16215 integration points.
  Task     3 has      16196 integration points.
  Task     4 has      16158 integration points.
  Task     5 has      16170 integration points.
  Task     6 has      16273 integration points.
  Task     7 has      16241 integration points.
  Initializing partition tables, free-atom densities, potentials, etc. across the integration grid (initialize_grid_storage).
  | Net number of integration points:   129620
  | of which are non-zero points    :   129124
  Obtaining max. number of non-zero basis functions in each batch (get_n_compute_maxes).
  | Maximal number of non-zero basis functions:      221 in task     0
  | Maximal number of non-zero basis functions:      221 in task     1
  | Maximal number of non-zero basis functions:      221 in task     2
  | Maximal number of non-zero basis functions:      221 in task     3
  | Maximal number of non-zero basis functions:      221 in task     4
  | Maximal number of non-zero basis functions:      220 in task     5
  | Maximal number of non-zero basis functions:      221 in task     6
  | Maximal number of non-zero basis functions:      221 in task     7
  Integrating Hamiltonian matrix: batch-based integration.
  Time summed over all CPUs for integration: real work        2.937 s, elapsed        3.052 s
  Integrating overlap matrix.
  Time summed over all CPUs for integration: real work        1.527 s, elapsed        1.569 s

  Updating Kohn-Sham eigenvalues, eigenvectors, occupation numbers, and Fermi level.
  Solving generalized eigenproblem
  Updating Kohn-Sham eigenvalues and eigenfunctions.
  Transforming overlap matrix and checking for singularities.
  Overlap matrix is nonsingular:
  | Lowest eigenvalue:  0.287305E-03
  Solving real generalised eigenvalue problem by standard LAPACK (fast)
  Determining occupation numbers for Kohn-Sham eigenstates.
  | Chemical potential (Fermi level) in eV                 : -.28644176E+01
  | Error in electron count due to remaining E_F inaccuracy: -.85265128E-13
  | Maximum occupation number of highest empty state:  0.00E+00

  Writing Kohn-Sham eigenvalues.

  State    Occupation    Eigenvalue [Ha]    Eigenvalue [eV]
      1       2.00000         -19.064908         -518.78255
      2       2.00000         -19.059140         -518.62559
      3       2.00000         -19.054456         -518.49814
      4       2.00000          -1.124565          -30.60097
      5       2.00000          -1.103439          -30.02609
      6       2.00000          -1.103334          -30.02324
      7       2.00000          -0.651411          -17.72580
      8       2.00000          -0.646377          -17.58882
      9       2.00000          -0.639677          -17.40650
     10       2.00000          -0.602225          -16.38738
     11       2.00000          -0.515272          -14.02126
     12       2.00000          -0.501099          -13.63560
     13       2.00000          -0.484580          -13.18608
     14       2.00000          -0.446135          -12.13995
     15       2.00000          -0.437900          -11.91587
     16       1.00000          -0.105265           -2.86442
     17       0.00000          -0.071885           -1.95608
     18       0.00000          -0.053669           -1.46040
     19       0.00000          -0.029785           -0.81048
     20       0.00000          -0.013361           -0.36357
     21       0.00000           0.043974            1.19659
     22       0.00000           0.048483            1.31929
     23       0.00000           0.064642            1.75900
     24       0.00000           0.069890            1.90181
     25       0.00000           0.093960            2.55679
     26       0.00000           0.105232            2.86352
     27       0.00000           0.115024            3.12996
     28       0.00000           0.119077            3.24024
     29       0.00000           0.124063            3.37592
     30       0.00000           0.133063            3.62082
     31       0.00000           0.139372            3.79250
     32       0.00000           0.150852            4.10488
     33       0.00000           0.180160            4.90241
     34       0.00000           0.212166            5.77334
     35       0.00000           0.235910            6.41944
     36       0.00000           0.249554            6.79072
     37       0.00000           0.270612            7.36373
     38       0.00000           0.292015            7.94614
     39       0.00000           0.333145            9.06534
     40       0.00000           0.341968            9.30543
     41       0.00000           0.365661            9.95014
     42       0.00000           0.382429           10.40643
     43       0.00000           0.388119           10.56126
     44       0.00000           0.391983           10.66639
     45       0.00000           0.420188           11.43390
     46       0.00000           0.425884           11.58890
     47       0.00000           0.449809           12.23992
     48       0.00000           0.465498           12.66685
     49       0.00000           0.479670           13.05249
     50       0.00000           0.521892           14.20139
     51       0.00000           0.550283           14.97397
     52       0.00000           0.551814           15.01562
     53       0.00000           0.619075           16.84588
     54       0.00000           0.667879           18.17391
     55       0.00000           0.713391           19.41237
     56       0.00000           0.741883           20.18766

  Highest occupied state (VBM) at    -11.91587245 eV
  | Occupation number:      2.00000000

  Lowest unoccupied state (CBM) at    -2.86441758 eV
  | Occupation number:      1.00000000

  Overall HOMO-LUMO gap:      9.05145487 eV.
  Calculating total energy contributions from superposition of free atom densities.

  Total energy components:
  | Sum of eigenvalues            :        -130.97430272 Ha       -3563.99211089 eV
  | XC energy correction          :         -27.69421103 Ha        -753.59782464 eV
  | XC potential correction       :          35.39298957 Ha         963.09224785 eV
  | Free-atom electrostatic energy:        -107.02857422 Ha       -2912.39568553 eV
  | Hartree energy correction     :           0.00000000 Ha           0.00000000 eV
  | van der Waals energy corr.    :           0.00000000 Ha           0.00000000 eV
  | Entropy correction            :          -0.00010367 Ha          -0.00282095 eV
  | ---------------------------
  | Total energy                  :        -230.30409839 Ha       -6266.89337320 eV
  | Total energy, T -> 0          :        -230.30420206 Ha       -6266.89619415 eV  <-- do not rely on this value for anything but (periodic) metals
  | Electronic free energy        :        -230.30430573 Ha       -6266.89901510 eV

  Derived energy quantities:
  | Kinetic energy                :         228.15619836 Ha        6208.44603976 eV
  | Electrostatic energy          :        -430.76608573 Ha      -11721.74158833 eV
  | Energy correction for multipole
  | error in Hartree potential    :           0.00000000 Ha           0.00000000 eV
  | Sum of eigenvalues per atom                           :        -356.39921109 eV
  | Total energy (T->0) per atom                          :        -626.68961941 eV  <-- do not rely on this value for anything but (periodic) metals
  | Electronic free energy per atom                       :        -626.68990151 eV
  Initialize hartree_potential_storage
  Max. number of atoms included in rho_multipole:           10

  End scf initialization - timings             :  max(cpu_time)    wall_clock(cpu1)
  | Time for scf. initialization               :        0.866 s           0.866 s
  | Boundary condition initialization          :        0.000 s           0.000 s
  | Integration                                :        0.579 s           0.579 s
  | Solution of K.-S. eqns.                    :        0.075 s           0.075 s
  | Grid partitioning                          :        0.103 s           0.103 s
  | Preloading free-atom quantities on grid    :        0.013 s           0.013 s
  | Free-atom superposition energy             :        0.034 s           0.034 s
  | Total energy evaluation                    :        0.001 s           0.001 s
------------------------------------------------------------

------------------------------------------------------------
          Begin self-consistency iteration #    1

  Date     :  20150727, Time     :  123111.269
------------------------------------------------------------
  Evaluating new KS density.
  Integration grid: deviation in total charge (<rho> - N_e) =  -8.526513E-14
  Pulay mixing of updated and previous charge densities.

  Evaluating partitioned Hartree potential by multipole expansion.
  | Analytical far-field extrapolation by fixed multipoles:
  | Hartree multipole sum: apparent total charge =  -0.340089E-06
  Summing up the Hartree potential.
  Time summed over all CPUs for potential: real work        1.147 s, elapsed        1.153 s
  | RMS charge density error from multipole expansion :   0.134228E-02

  Integrating Hamiltonian matrix: batch-based integration.
  Time summed over all CPUs for integration: real work        2.927 s, elapsed        3.031 s

  Updating Kohn-Sham eigenvalues, eigenvectors, occupation numbers, and Fermi level.
  Solving generalized eigenproblem
  Updating Kohn-Sham eigenvalues and eigenfunctions.
  Solving real generalised eigenvalue problem by standard LAPACK (fast)
  Determining occupation numbers for Kohn-Sham eigenstates.
  | Chemical potential (Fermi level) in eV                 : -.26820520E+01
  | Error in electron count due to remaining E_F inaccuracy: 0.00000000E+00
  | Maximum occupation number of highest empty state:  0.00E+00

  Writing Kohn-Sham eigenvalues.

  State    Occupation    Eigenvalue [Ha]    Eigenvalue [eV]
      1       2.00000         -19.010388         -517.29898
      2       2.00000         -18.988379         -516.70008
      3       2.00000         -18.971812         -516.24926
      4       2.00000          -1.097528          -29.86525
      5       2.00000          -1.071196          -29.14873
      6       2.00000          -1.062131          -28.90207
      7       2.00000          -0.623292          -16.96064
      8       2.00000          -0.616223          -16.76829
      9       2.00000          -0.610899          -16.62340
     10       2.00000          -0.580314          -15.79114
     11       2.00000          -0.484842          -13.19323
     12       2.00000          -0.459572          -12.50560
     13       2.00000          -0.455521          -12.39536
     14       2.00000          -0.411607          -11.20039
     15       2.00000          -0.394907          -10.74598
     16       1.00000          -0.098564           -2.68205
     17       0.00000          -0.065170           -1.77337
     18       0.00000          -0.047282           -1.28661
     19       0.00000          -0.022839           -0.62147
     20       0.00000          -0.007199           -0.19588
     21       0.00000           0.048891            1.33039
     22       0.00000           0.053983            1.46896
     23       0.00000           0.069278            1.88515
     24       0.00000           0.074689            2.03239
     25       0.00000           0.098263            2.67388
     26       0.00000           0.113556            3.09001
     27       0.00000           0.122237            3.32623
     28       0.00000           0.126558            3.44381
     29       0.00000           0.129669            3.52848
     30       0.00000           0.142685            3.88265
     31       0.00000           0.149145            4.05844
     32       0.00000           0.158828            4.32193
     33       0.00000           0.186964            5.08755
     34       0.00000           0.218228            5.93830
     35       0.00000           0.242007            6.58534
     36       0.00000           0.254857            6.93500
     37       0.00000           0.276873            7.53408
     38       0.00000           0.297255            8.08873
     39       0.00000           0.340196            9.25719
     40       0.00000           0.348421            9.48101
     41       0.00000           0.371189           10.10057
     42       0.00000           0.388092           10.56052
     43       0.00000           0.394861           10.74471
     44       0.00000           0.399424           10.86889
     45       0.00000           0.427800           11.64104
     46       0.00000           0.432323           11.76410
     47       0.00000           0.460187           12.52234
     48       0.00000           0.473079           12.87314
     49       0.00000           0.489606           13.32286
     50       0.00000           0.529742           14.41502
     51       0.00000           0.559530           15.22559
     52       0.00000           0.561461           15.27812
     53       0.00000           0.626469           17.04708
     54       0.00000           0.677894           18.44642
     55       0.00000           0.724110           19.70404
     56       0.00000           0.750162           20.41296

  Highest occupied state (VBM) at     -2.68205200 eV
  | Occupation number:      1.00000000

  Lowest unoccupied state (CBM) at    -2.68205200 eV
  | Occupation number:      1.00000000

  Overall HOMO-LUMO gap:      0.00000000 eV.

  Total energy components:
  | Sum of eigenvalues            :        -129.77578651 Ha       -3531.37882564 eV
  | XC energy correction          :         -27.82609641 Ha        -757.18660849 eV
  | XC potential correction       :          35.56534991 Ha         967.78241125 eV
  | Free-atom electrostatic energy:        -107.02857422 Ha       -2912.39568553 eV
  | Hartree energy correction     :          -1.16559591 Ha         -31.71747861 eV
  | van der Waals energy corr.    :           0.00000000 Ha           0.00000000 eV
  | Entropy correction            :          -0.00010367 Ha          -0.00282095 eV
  | ---------------------------
  | Total energy                  :        -230.23070315 Ha       -6264.89618702 eV
  | Total energy, T -> 0          :        -230.23080681 Ha       -6264.89900797 eV  <-- do not rely on this value for anything but (periodic) metals
  | Electronic free energy        :        -230.23091048 Ha       -6264.90182892 eV

  Derived energy quantities:
  | Kinetic energy                :         228.97403506 Ha        6230.70050849 eV
  | Electrostatic energy          :        -431.37864180 Ha      -11738.41008701 eV
  | Energy correction for multipole
  | error in Hartree potential    :           0.00040634 Ha           0.01105704 eV
  | Sum of eigenvalues per atom                           :        -353.13788256 eV
  | Total energy (T->0) per atom                          :        -626.48990080 eV  <-- do not rely on this value for anything but (periodic) metals
  | Electronic free energy per atom                       :        -626.49018289 eV

  Self-consistency convergence accuracy:
  | Change of charge density      : 0.4975E+00
  | Change of sum of eigenvalues  : 0.3261E+02 eV
  | Change of total energy        : 0.1997E+01 eV

  End self-consistency iteration #     1       :  max(cpu_time)    wall_clock(cpu1)
  | Time for this iteration                    :        0.802 s           0.801 s
  | Charge density update                      :        0.252 s           0.252 s
  | Density mixing                             :        0.002 s           0.002 s
  | Hartree multipole update                   :        0.004 s           0.004 s
  | Hartree multipole summation                :        0.145 s           0.145 s
  | Integration                                :        0.379 s           0.379 s
  | Solution of K.-S. eqns.                    :        0.018 s           0.019 s
  | Total energy evaluation                    :        0.000 s           0.000 s
------------------------------------------------------------

------------------------------------------------------------
          Begin self-consistency iteration #    2

  Date     :  20150727, Time     :  123112.071
------------------------------------------------------------
  Evaluating new KS density.
  Integration grid: deviation in total charge (<rho> - N_e) =  -1.776357E-14
  Pulay mixing of updated and previous charge densities.

  Evaluating partitioned Hartree potential by multipole expansion.
  | Analytical far-field extrapolation by fixed multipoles:
  | Hartree multipole sum: apparent total charge =  -0.111052E-05
  Summing up the Hartree potential.
  Time summed over all CPUs for potential: real work        1.146 s, elapsed        1.151 s
  | RMS charge density error from multipole expansion :   0.547735E-02

  Integrating Hamiltonian matrix: batch-based integration.
  Time summed over all CPUs for integration: real work        2.926 s, elapsed        3.034 s

  Updating Kohn-Sham eigenvalues, eigenvectors, occupation numbers, and Fermi level.
  Solving generalized eigenproblem
  Updating Kohn-Sham eigenvalues and eigenfunctions.
  Solving real generalised eigenvalue problem by standard LAPACK (fast)
  Determining occupation numbers for Kohn-Sham eigenstates.
  | Chemical potential (Fermi level) in eV                 : -.22464058E+01
  | Error in electron count due to remaining E_F inaccuracy: -.31661784E-10
  | Maximum occupation number of highest empty state:  0.00E+00

  Highest occupied state (VBM) at     -7.89140593 eV
  | Occupation number:      2.00000000

  Lowest unoccupied state (CBM) at    -2.24640575 eV
  | Occupation number:      1.00000000

  Overall HOMO-LUMO gap:      5.64500017 eV.

  Total energy components:
  | Sum of eigenvalues            :        -126.90086637 Ha       -3453.14826813 eV
  | XC energy correction          :         -28.15972230 Ha        -766.26503101 eV
  | XC potential correction       :          36.00035325 Ha         979.61945442 eV
  | Free-atom electrostatic energy:        -107.02857422 Ha       -2912.39568553 eV
  | Hartree energy correction     :          -4.05839232 Ha        -110.43447399 eV
  | van der Waals energy corr.    :           0.00000000 Ha           0.00000000 eV
  | Entropy correction            :          -0.00010367 Ha          -0.00282095 eV
  | ---------------------------
  | Total energy                  :        -230.14720196 Ha       -6262.62400422 eV
  | Total energy, T -> 0          :        -230.14730563 Ha       -6262.62682517 eV  <-- do not rely on this value for anything but (periodic) metals
  | Electronic free energy        :        -230.14740930 Ha       -6262.62964612 eV

  Derived energy quantities:
  | Kinetic energy                :         230.69158771 Ha        6277.43749410 eV
  | Electrostatic energy          :        -432.67906737 Ha      -11773.79646731 eV
  | Energy correction for multipole
  | error in Hartree potential    :           0.00110242 Ha           0.02999831 eV
  | Sum of eigenvalues per atom                           :        -345.31482681 eV
  | Total energy (T->0) per atom                          :        -626.26268252 eV  <-- do not rely on this value for anything but (periodic) metals
  | Electronic free energy per atom                       :        -626.26296461 eV

  Self-consistency convergence accuracy:
  | Change of charge density      : 0.3786E+00
  | Change of sum of eigenvalues  : 0.7823E+02 eV
  | Change of total energy        : 0.2272E+01 eV

  End self-consistency iteration #     2       :  max(cpu_time)    wall_clock(cpu1)
  | Time for this iteration                    :        0.802 s           0.802 s
  | Charge density update                      :        0.251 s           0.251 s
  | Density mixing                             :        0.004 s           0.004 s
  | Hartree multipole update                   :        0.004 s           0.004 s
  | Hartree multipole summation                :        0.145 s           0.144 s
  | Integration                                :        0.380 s           0.380 s
  | Solution of K.-S. eqns.                    :        0.018 s           0.019 s
  | Total energy evaluation                    :        0.000 s           0.000 s
------------------------------------------------------------

------------------------------------------------------------
          Begin self-consistency iteration #    3

  Date     :  20150727, Time     :  123112.873
------------------------------------------------------------
  Evaluating new KS density.
  Integration grid: deviation in total charge (<rho> - N_e) =  -3.165823E-11
  Pulay mixing of updated and previous charge densities.

  Evaluating partitioned Hartree potential by multipole expansion.
  | Analytical far-field extrapolation by fixed multipoles:
  | Hartree multipole sum: apparent total charge =  -0.307638E-06
  Summing up the Hartree potential.
  Time summed over all CPUs for potential: real work        1.146 s, elapsed        1.151 s
  | RMS charge density error from multipole expansion :   0.110093E-01

  Integrating Hamiltonian matrix: batch-based integration.
  Time summed over all CPUs for integration: real work        2.925 s, elapsed        3.033 s

  Updating Kohn-Sham eigenvalues, eigenvectors, occupation numbers, and Fermi level.
  Solving generalized eigenproblem
  Updating Kohn-Sham eigenvalues and eigenfunctions.
  Solving real generalised eigenvalue problem by standard LAPACK (fast)
  Determining occupation numbers for Kohn-Sham eigenstates.
  | Chemical potential (Fermi level) in eV                 : -.23151753E+01
  | Error in electron count due to remaining E_F inaccuracy: -.93791641E-12
  | Maximum occupation number of highest empty state:  0.00E+00

  Highest occupied state (VBM) at     -7.77456250 eV
  | Occupation number:      2.00000000

  Lowest unoccupied state (CBM) at    -2.31517525 eV
  | Occupation number:      1.00000000

  Overall HOMO-LUMO gap:      5.45938725 eV.

  Total energy components:
  | Sum of eigenvalues            :        -127.29398839 Ha       -3463.84566253 eV
  | XC energy correction          :         -28.13296348 Ha        -765.53688632 eV
  | XC potential correction       :          35.95979886 Ha         978.51591326 eV
  | Free-atom electrostatic energy:        -107.02857422 Ha       -2912.39568553 eV
  | Hartree energy correction     :          -3.65129141 Ha         -99.35669445 eV
  | van der Waals energy corr.    :           0.00000000 Ha           0.00000000 eV
  | Entropy correction            :          -0.00010367 Ha          -0.00282095 eV
  | ---------------------------
  | Total energy                  :        -230.14701863 Ha       -6262.61901556 eV
  | Total energy, T -> 0          :        -230.14712230 Ha       -6262.62183651 eV  <-- do not rely on this value for anything but (periodic) metals
  | Electronic free energy        :        -230.14722597 Ha       -6262.62465746 eV

  Derived energy quantities:
  | Kinetic energy                :         229.54892870 Ha        6246.34416046 eV
  | Electrostatic energy          :        -431.56298386 Ha      -11743.42628970 eV
  | Energy correction for multipole
  | error in Hartree potential    :          -0.00053482 Ha          -0.01455314 eV
  | Sum of eigenvalues per atom                           :        -346.38456625 eV
  | Total energy (T->0) per atom                          :        -626.26218365 eV  <-- do not rely on this value for anything but (periodic) metals
  | Electronic free energy per atom                       :        -626.26246575 eV

  Self-consistency convergence accuracy:
  | Change of charge density      : 0.1842E+00
  | Change of sum of eigenvalues  : -.1070E+02 eV
  | Change of total energy        : 0.4989E-02 eV

  End self-consistency iteration #     3       :  max(cpu_time)    wall_clock(cpu1)
  | Time for this iteration                    :        0.799 s           0.800 s
  | Charge density update                      :        0.247 s           0.248 s
  | Density mixing                             :        0.005 s           0.004 s
  | Hartree multipole update                   :        0.004 s           0.004 s
  | Hartree multipole summation                :        0.144 s           0.145 s
  | Integration                                :        0.380 s           0.380 s
  | Solution of K.-S. eqns.                    :        0.019 s           0.018 s
  | Total energy evaluation                    :        0.000 s           0.001 s
------------------------------------------------------------

------------------------------------------------------------
          Begin self-consistency iteration #    4

  Date     :  20150727, Time     :  123113.673
------------------------------------------------------------
  Evaluating new KS density.
  Integration grid: deviation in total charge (<rho> - N_e) =  -9.556800E-13
  Pulay mixing of updated and previous charge densities.

  Evaluating partitioned Hartree potential by multipole expansion.
  | Analytical far-field extrapolation by fixed multipoles:
  | Hartree multipole sum: apparent total charge =  -0.282393E-06
  Summing up the Hartree potential.
  Time summed over all CPUs for potential: real work        1.146 s, elapsed        1.152 s
  | RMS charge density error from multipole expansion :   0.144270E-01

  Integrating Hamiltonian matrix: batch-based integration.
  Time summed over all CPUs for integration: real work        2.914 s, elapsed        3.012 s

  Updating Kohn-Sham eigenvalues, eigenvectors, occupation numbers, and Fermi level.
  Solving generalized eigenproblem
  Updating Kohn-Sham eigenvalues and eigenfunctions.
  Solving real generalised eigenvalue problem by standard LAPACK (fast)
  Determining occupation numbers for Kohn-Sham eigenstates.
  | Chemical potential (Fermi level) in eV                 : -.21900481E+01
  | Error in electron count due to remaining E_F inaccuracy: 0.40891734E-11
  | Maximum occupation number of highest empty state:  0.00E+00

  Highest occupied state (VBM) at     -2.19004810 eV
  | Occupation number:      1.00000000

  Lowest unoccupied state (CBM) at    -1.24681651 eV
  | Occupation number:      0.00000000

  Overall HOMO-LUMO gap:      0.94323159 eV.

  Total energy components:
  | Sum of eigenvalues            :        -126.50424740 Ha       -3442.35571700 eV
  | XC energy correction          :         -28.24422064 Ha        -768.56434786 eV
  | XC potential correction       :          36.10302072 Ha         982.41317851 eV
  | Free-atom electrostatic energy:        -107.02857422 Ha       -2912.39568553 eV
  | Hartree energy correction     :          -4.46885319 Ha        -121.60368240 eV
  | van der Waals energy corr.    :           0.00000000 Ha           0.00000000 eV
  | Entropy correction            :          -0.00010367 Ha          -0.00282095 eV
  | ---------------------------
  | Total energy                  :        -230.14287473 Ha       -6262.50625427 eV
  | Total energy, T -> 0          :        -230.14297840 Ha       -6262.50907521 eV  <-- do not rely on this value for anything but (periodic) metals
  | Electronic free energy        :        -230.14308207 Ha       -6262.51189616 eV

  Derived energy quantities:
  | Kinetic energy                :         229.66724922 Ha        6249.56382552 eV
  | Electrostatic energy          :        -431.56590331 Ha      -11743.50573193 eV
  | Energy correction for multipole
  | error in Hartree potential    :          -0.00094383 Ha          -0.02568298 eV
  | Sum of eigenvalues per atom                           :        -344.23557170 eV
  | Total energy (T->0) per atom                          :        -626.25090752 eV  <-- do not rely on this value for anything but (periodic) metals
  | Electronic free energy per atom                       :        -626.25118962 eV

  Self-consistency convergence accuracy:
  | Change of charge density      : 0.9191E-01
  | Change of sum of eigenvalues  : 0.2149E+02 eV
  | Change of total energy        : 0.1128E+00 eV

  End self-consistency iteration #     4       :  max(cpu_time)    wall_clock(cpu1)
  | Time for this iteration                    :        0.798 s           0.798 s
  | Charge density update                      :        0.248 s           0.248 s
  | Density mixing                             :        0.006 s           0.005 s
  | Hartree multipole update                   :        0.003 s           0.004 s
  | Hartree multipole summation                :        0.145 s           0.145 s
  | Integration                                :        0.377 s           0.377 s
  | Solution of K.-S. eqns.                    :        0.018 s           0.018 s
  | Total energy evaluation                    :        0.000 s           0.001 s
------------------------------------------------------------

------------------------------------------------------------
          Begin self-consistency iteration #    5

  Date     :  20150727, Time     :  123114.471
------------------------------------------------------------
  Evaluating new KS density.
  Integration grid: deviation in total charge (<rho> - N_e) =   4.128253E-12
  Pulay mixing of updated and previous charge densities.

  Evaluating partitioned Hartree potential by multipole expansion.
  | Analytical far-field extrapolation by fixed multipoles:
  | Hartree multipole sum: apparent total charge =  -0.263393E-06
  Summing up the Hartree potential.
  Time summed over all CPUs for potential: real work        1.146 s, elapsed        1.151 s
  | RMS charge density error from multipole expansion :   0.143768E-01

  Integrating Hamiltonian matrix: batch-based integration.
  Time summed over all CPUs for integration: real work        2.913 s, elapsed        3.014 s

  Updating Kohn-Sham eigenvalues, eigenvectors, occupation numbers, and Fermi level.
  Solving generalized eigenproblem
  Updating Kohn-Sham eigenvalues and eigenfunctions.
  Solving real generalised eigenvalue problem by standard LAPACK (fast)
  Determining occupation numbers for Kohn-Sham eigenstates.
  | Chemical potential (Fermi level) in eV                 : -.21782338E+01
  | Error in electron count due to remaining E_F inaccuracy: 0.93756114E-11
  | Maximum occupation number of highest empty state:  0.00E+00

  Highest occupied state (VBM) at     -2.17823381 eV
  | Occupation number:      1.00000000

  Lowest unoccupied state (CBM) at    -1.25447987 eV
  | Occupation number:      0.00000000

  Overall HOMO-LUMO gap:      0.92375394 eV.

  Total energy components:
  | Sum of eigenvalues            :        -126.54346959 Ha       -3443.42300707 eV
  | XC energy correction          :         -28.23921576 Ha        -768.42815804 eV
  | XC potential correction       :          36.09643808 Ha         982.23405565 eV
  | Free-atom electrostatic energy:        -107.02857422 Ha       -2912.39568553 eV
  | Hartree energy correction     :          -4.42789197 Ha        -120.48907103 eV
  | van der Waals energy corr.    :           0.00000000 Ha           0.00000000 eV
  | Entropy correction            :          -0.00010367 Ha          -0.00282095 eV
  | ---------------------------
  | Total energy                  :        -230.14271347 Ha       -6262.50186602 eV
  | Total energy, T -> 0          :        -230.14281713 Ha       -6262.50468697 eV  <-- do not rely on this value for anything but (periodic) metals
  | Electronic free energy        :        -230.14292080 Ha       -6262.50750792 eV

  Derived energy quantities:
  | Kinetic energy                :         229.67343456 Ha        6249.73213730 eV
  | Electrostatic energy          :        -431.57693227 Ha      -11743.80584528 eV
  | Energy correction for multipole
  | error in Hartree potential    :          -0.00092743 Ha          -0.02523654 eV
  | Sum of eigenvalues per atom                           :        -344.34230071 eV
  | Total energy (T->0) per atom                          :        -626.25046870 eV  <-- do not rely on this value for anything but (periodic) metals
  | Electronic free energy per atom                       :        -626.25075079 eV

  Self-consistency convergence accuracy:
  | Change of charge density      : 0.1345E-01
  | Change of sum of eigenvalues  : -.1067E+01 eV
  | Change of total energy        : 0.4388E-02 eV

  End self-consistency iteration #     5       :  max(cpu_time)    wall_clock(cpu1)
  | Time for this iteration                    :        0.799 s           0.798 s
  | Charge density update                      :        0.248 s           0.247 s
  | Density mixing                             :        0.006 s           0.007 s
  | Hartree multipole update                   :        0.004 s           0.004 s
  | Hartree multipole summation                :        0.145 s           0.144 s
  | Integration                                :        0.377 s           0.378 s
  | Solution of K.-S. eqns.                    :        0.019 s           0.018 s
  | Total energy evaluation                    :        0.000 s           0.000 s
------------------------------------------------------------

------------------------------------------------------------
          Begin self-consistency iteration #    6

  Date     :  20150727, Time     :  123115.269
------------------------------------------------------------
  Evaluating new KS density.
  Integration grid: deviation in total charge (<rho> - N_e) =   9.382717E-12
  Pulay mixing of updated and previous charge densities.

  Evaluating partitioned Hartree potential by multipole expansion.
  | Analytical far-field extrapolation by fixed multipoles:
  | Hartree multipole sum: apparent total charge =  -0.202640E-06
  Summing up the Hartree potential.
  Time summed over all CPUs for potential: real work        1.146 s, elapsed        1.152 s
  | RMS charge density error from multipole expansion :   0.144336E-01

  Integrating Hamiltonian matrix: batch-based integration.
  Time summed over all CPUs for integration: real work        2.913 s, elapsed        3.017 s

  Updating Kohn-Sham eigenvalues, eigenvectors, occupation numbers, and Fermi level.
  Solving generalized eigenproblem
  Updating Kohn-Sham eigenvalues and eigenfunctions.
  Solving real generalised eigenvalue problem by standard LAPACK (fast)
  Determining occupation numbers for Kohn-Sham eigenstates.
  | Chemical potential (Fermi level) in eV                 : -.21818254E+01
  | Error in electron count due to remaining E_F inaccuracy: 0.00000000E+00
  | Maximum occupation number of highest empty state:  0.00E+00

  Highest occupied state (VBM) at     -2.18182541 eV
  | Occupation number:      1.00000000

  Lowest unoccupied state (CBM) at    -2.18182541 eV
  | Occupation number:      1.00000000

  Overall HOMO-LUMO gap:      0.00000000 eV.

  Total energy components:
  | Sum of eigenvalues            :        -126.57069940 Ha       -3444.16396791 eV
  | XC energy correction          :         -28.23631707 Ha        -768.34928070 eV
  | XC potential correction       :          36.09252204 Ha         982.12749494 eV
  | Free-atom electrostatic energy:        -107.02857422 Ha       -2912.39568553 eV
  | Hartree energy correction     :          -4.39962341 Ha        -119.71984440 eV
  | van der Waals energy corr.    :           0.00000000 Ha           0.00000000 eV
  | Entropy correction            :          -0.00010367 Ha          -0.00282095 eV
  | ---------------------------
  | Total energy                  :        -230.14269206 Ha       -6262.50128360 eV
  | Total energy, T -> 0          :        -230.14279573 Ha       -6262.50410454 eV  <-- do not rely on this value for anything but (periodic) metals
  | Electronic free energy        :        -230.14289940 Ha       -6262.50692549 eV

  Derived energy quantities:
  | Kinetic energy                :         229.66640417 Ha        6249.54083071 eV
  | Electrostatic energy          :        -431.57277917 Ha      -11743.69283361 eV
  | Energy correction for multipole
  | error in Hartree potential    :          -0.00094813 Ha          -0.02579998 eV
  | Sum of eigenvalues per atom                           :        -344.41639679 eV
  | Total energy (T->0) per atom                          :        -626.25041045 eV  <-- do not rely on this value for anything but (periodic) metals
  | Electronic free energy per atom                       :        -626.25069255 eV

  Self-consistency convergence accuracy:
  | Change of charge density      : 0.7576E-02
  | Change of sum of eigenvalues  : -.7410E+00 eV
  | Change of total energy        : 0.5824E-03 eV

  End self-consistency iteration #     6       :  max(cpu_time)    wall_clock(cpu1)
  | Time for this iteration                    :        0.801 s           0.801 s
  | Charge density update                      :        0.249 s           0.248 s
  | Density mixing                             :        0.007 s           0.007 s
  | Hartree multipole update                   :        0.004 s           0.004 s
  | Hartree multipole summation                :        0.144 s           0.145 s
  | Integration                                :        0.378 s           0.377 s
  | Solution of K.-S. eqns.                    :        0.019 s           0.019 s
  | Total energy evaluation                    :        0.000 s           0.000 s
------------------------------------------------------------

------------------------------------------------------------
          Begin self-consistency iteration #    7

  Date     :  20150727, Time     :  123116.070
------------------------------------------------------------
  Evaluating new KS density.
  Integration grid: deviation in total charge (<rho> - N_e) =   7.105427E-15
  Pulay mixing of updated and previous charge densities.

  Evaluating partitioned Hartree potential by multipole expansion.
  | Analytical far-field extrapolation by fixed multipoles:
  | Hartree multipole sum: apparent total charge =  -0.132832E-06
  Summing up the Hartree potential.
  Time summed over all CPUs for potential: real work        1.146 s, elapsed        1.151 s
  | RMS charge density error from multipole expansion :   0.145326E-01

  Integrating Hamiltonian matrix: batch-based integration.
  Time summed over all CPUs for integration: real work        2.916 s, elapsed        3.023 s

  Updating Kohn-Sham eigenvalues, eigenvectors, occupation numbers, and Fermi level.
  Solving generalized eigenproblem
  Updating Kohn-Sham eigenvalues and eigenfunctions.
  Solving real generalised eigenvalue problem by standard LAPACK (fast)
  Determining occupation numbers for Kohn-Sham eigenstates.
  | Chemical potential (Fermi level) in eV                 : -.21951445E+01
  | Error in electron count due to remaining E_F inaccuracy: -.12569501E-10
  | Maximum occupation number of highest empty state:  0.00E+00

  Highest occupied state (VBM) at     -7.06655620 eV
  | Occupation number:      2.00000000

  Lowest unoccupied state (CBM) at    -2.19514451 eV
  | Occupation number:      1.00000000

  Overall HOMO-LUMO gap:      4.87141169 eV.

  Total energy components:
  | Sum of eigenvalues            :        -126.61484735 Ha       -3445.36529456 eV
  | XC energy correction          :         -28.23172183 Ha        -768.22423785 eV
  | XC potential correction       :          36.08620064 Ha         981.95548075 eV
  | Free-atom electrostatic energy:        -107.02857422 Ha       -2912.39568553 eV
  | Hartree energy correction     :          -4.35373440 Ha        -118.47114089 eV
  | van der Waals energy corr.    :           0.00000000 Ha           0.00000000 eV
  | Entropy correction            :          -0.00010367 Ha          -0.00282095 eV
  | ---------------------------
  | Total energy                  :        -230.14267716 Ha       -6262.50087808 eV
  | Total energy, T -> 0          :        -230.14278083 Ha       -6262.50369902 eV  <-- do not rely on this value for anything but (periodic) metals
  | Electronic free energy        :        -230.14288450 Ha       -6262.50651997 eV

  Derived energy quantities:
  | Kinetic energy                :         229.69696311 Ha        6250.37238160 eV
  | Electrostatic energy          :        -431.60791844 Ha      -11744.64902183 eV
  | Energy correction for multipole
  | error in Hartree potential    :          -0.00097207 Ha          -0.02645126 eV
  | Sum of eigenvalues per atom                           :        -344.53652946 eV
  | Total energy (T->0) per atom                          :        -626.25036990 eV  <-- do not rely on this value for anything but (periodic) metals
  | Electronic free energy per atom                       :        -626.25065200 eV

  Self-consistency convergence accuracy:
  | Change of charge density      : 0.5693E-02
  | Change of sum of eigenvalues  : -.1201E+01 eV
  | Change of total energy        : 0.4055E-03 eV

  End self-consistency iteration #     7       :  max(cpu_time)    wall_clock(cpu1)
  | Time for this iteration                    :        0.801 s           0.801 s
  | Charge density update                      :        0.248 s           0.248 s
  | Density mixing                             :        0.008 s           0.008 s
  | Hartree multipole update                   :        0.003 s           0.004 s
  | Hartree multipole summation                :        0.145 s           0.144 s
  | Integration                                :        0.379 s           0.379 s
  | Solution of K.-S. eqns.                    :        0.018 s           0.018 s
  | Total energy evaluation                    :        0.000 s           0.000 s
------------------------------------------------------------

------------------------------------------------------------
          Begin self-consistency iteration #    8

  Date     :  20150727, Time     :  123116.872
------------------------------------------------------------
  Evaluating new KS density.
  Integration grid: deviation in total charge (<rho> - N_e) =  -1.257661E-11
  Pulay mixing of updated and previous charge densities.

  Evaluating partitioned Hartree potential by multipole expansion.
  | Analytical far-field extrapolation by fixed multipoles:
  | Hartree multipole sum: apparent total charge =  -0.118315E-06
  Summing up the Hartree potential.
  Time summed over all CPUs for potential: real work        1.146 s, elapsed        1.151 s
  | RMS charge density error from multipole expansion :   0.145607E-01

  Integrating Hamiltonian matrix: batch-based integration.
  Time summed over all CPUs for integration: real work        2.909 s, elapsed        3.016 s

  Updating Kohn-Sham eigenvalues, eigenvectors, occupation numbers, and Fermi level.
  Solving generalized eigenproblem
  Updating Kohn-Sham eigenvalues and eigenfunctions.
  Solving real generalised eigenvalue problem by standard LAPACK (fast)
  Determining occupation numbers for Kohn-Sham eigenstates.
  | Chemical potential (Fermi level) in eV                 : -.21961017E+01
  | Error in electron count due to remaining E_F inaccuracy: -.40446757E-08
  | Maximum occupation number of highest empty state:  0.00E+00

  Highest occupied state (VBM) at     -7.05619988 eV
  | Occupation number:      2.00000000

  Lowest unoccupied state (CBM) at    -2.19610168 eV
  | Occupation number:      1.00000000

  Overall HOMO-LUMO gap:      4.86009820 eV.

  Total energy components:
  | Sum of eigenvalues            :        -126.61505729 Ha       -3445.37100735 eV
  | XC energy correction          :         -28.23211387 Ha        -768.23490567 eV
  | XC potential correction       :          36.08668301 Ha         981.96860672 eV
  | Free-atom electrostatic energy:        -107.02857422 Ha       -2912.39568553 eV
  | Hartree energy correction     :          -4.35361367 Ha        -118.46785544 eV
  | van der Waals energy corr.    :           0.00000000 Ha           0.00000000 eV
  | Entropy correction            :          -0.00010367 Ha          -0.00282095 eV
  | ---------------------------
  | Total energy                  :        -230.14267603 Ha       -6262.50084727 eV
  | Total energy, T -> 0          :        -230.14277970 Ha       -6262.50366822 eV  <-- do not rely on this value for anything but (periodic) metals
  | Electronic free energy        :        -230.14288336 Ha       -6262.50648916 eV

  Derived energy quantities:
  | Kinetic energy                :         229.69916083 Ha        6250.43218466 eV
  | Electrostatic energy          :        -431.60972299 Ha      -11744.69812626 eV
  | Energy correction for multipole
  | error in Hartree potential    :          -0.00098115 Ha          -0.02669835 eV
  | Sum of eigenvalues per atom                           :        -344.53710074 eV
  | Total energy (T->0) per atom                          :        -626.25036682 eV  <-- do not rely on this value for anything but (periodic) metals
  | Electronic free energy per atom                       :        -626.25064892 eV

  Self-consistency convergence accuracy:
  | Change of charge density      : 0.1226E-02
  | Change of sum of eigenvalues  : -.5713E-02 eV
  | Change of total energy        : 0.3081E-04 eV

  End self-consistency iteration #     8       :  max(cpu_time)    wall_clock(cpu1)
  | Time for this iteration                    :        0.802 s           0.802 s
  | Charge density update                      :        0.248 s           0.248 s
  | Density mixing                             :        0.009 s           0.009 s
  | Hartree multipole update                   :        0.004 s           0.004 s
  | Hartree multipole summation                :        0.144 s           0.144 s
  | Integration                                :        0.378 s           0.378 s
  | Solution of K.-S. eqns.                    :        0.018 s           0.018 s
  | Total energy evaluation                    :        0.001 s           0.000 s
------------------------------------------------------------

------------------------------------------------------------
          Begin self-consistency iteration #    9

  Date     :  20150727, Time     :  123117.674
------------------------------------------------------------
  Evaluating new KS density.
  Integration grid: deviation in total charge (<rho> - N_e) =  -4.044665E-09
  Pulay mixing of updated and previous charge densities.

  Evaluating partitioned Hartree potential by multipole expansion.
  | Analytical far-field extrapolation by fixed multipoles:
  | Hartree multipole sum: apparent total charge =  -0.114478E-06
  Summing up the Hartree potential.
  Time summed over all CPUs for potential: real work        1.146 s, elapsed        1.151 s
  | RMS charge density error from multipole expansion :   0.145513E-01

  Integrating Hamiltonian matrix: batch-based integration.
  Time summed over all CPUs for integration: real work        2.911 s, elapsed        3.024 s

  Updating Kohn-Sham eigenvalues, eigenvectors, occupation numbers, and Fermi level.
  Solving generalized eigenproblem
  Updating Kohn-Sham eigenvalues and eigenfunctions.
  Solving real generalised eigenvalue problem by standard LAPACK (fast)
  Determining occupation numbers for Kohn-Sham eigenstates.
  | Chemical potential (Fermi level) in eV                 : -.21968946E+01
  | Error in electron count due to remaining E_F inaccuracy: -.82046157E-08
  | Maximum occupation number of highest empty state:  0.00E+00

  Highest occupied state (VBM) at     -7.05283625 eV
  | Occupation number:      2.00000000

  Lowest unoccupied state (CBM) at    -2.19689465 eV
  | Occupation number:      0.99999999

  Overall HOMO-LUMO gap:      4.85594160 eV.

  Total energy components:
  | Sum of eigenvalues            :        -126.61446090 Ha       -3445.35477881 eV
  | XC energy correction          :         -28.23221019 Ha        -768.23752690 eV
  | XC potential correction       :          36.08681543 Ha         981.97221013 eV
  | Free-atom electrostatic energy:        -107.02857422 Ha       -2912.39568553 eV
  | Hartree energy correction     :          -4.35424569 Ha        -118.48505371 eV
  | van der Waals energy corr.    :           0.00000000 Ha           0.00000000 eV
  | Entropy correction            :          -0.00010367 Ha          -0.00282095 eV
  | ---------------------------
  | Total energy                  :        -230.14267557 Ha       -6262.50083481 eV
  | Total energy, T -> 0          :        -230.14277924 Ha       -6262.50365576 eV  <-- do not rely on this value for anything but (periodic) metals
  | Electronic free energy        :        -230.14288291 Ha       -6262.50647671 eV

  Derived energy quantities:
  | Kinetic energy                :         229.70222301 Ha        6250.51551084 eV
  | Electrostatic energy          :        -431.61268839 Ha      -11744.77881875 eV
  | Energy correction for multipole
  | error in Hartree potential    :          -0.00098030 Ha          -0.02667543 eV
  | Sum of eigenvalues per atom                           :        -344.53547788 eV
  | Total energy (T->0) per atom                          :        -626.25036558 eV  <-- do not rely on this value for anything but (periodic) metals
  | Electronic free energy per atom                       :        -626.25064767 eV

  Self-consistency convergence accuracy:
  | Change of charge density      : 0.5459E-03
  | Change of sum of eigenvalues  : 0.1623E-01 eV
  | Change of total energy        : 0.1245E-04 eV

  End self-consistency iteration #     9       :  max(cpu_time)    wall_clock(cpu1)
  | Time for this iteration                    :        0.804 s           0.804 s
  | Charge density update                      :        0.248 s           0.248 s
  | Density mixing                             :        0.009 s           0.010 s
  | Hartree multipole update                   :        0.004 s           0.004 s
  | Hartree multipole summation                :        0.145 s           0.144 s
  | Integration                                :        0.379 s           0.378 s
  | Solution of K.-S. eqns.                    :        0.018 s           0.019 s
  | Total energy evaluation                    :        0.000 s           0.000 s
------------------------------------------------------------

------------------------------------------------------------
          Begin self-consistency iteration #   10

  Date     :  20150727, Time     :  123118.478
------------------------------------------------------------
  Evaluating new KS density.
  Integration grid: deviation in total charge (<rho> - N_e) =  -8.204612E-09
  Pulay mixing of updated and previous charge densities.

  Evaluating partitioned Hartree potential by multipole expansion.
  | Analytical far-field extrapolation by fixed multipoles:
  | Hartree multipole sum: apparent total charge =  -0.106086E-06
  Summing up the Hartree potential.
  Time summed over all CPUs for potential: real work        1.146 s, elapsed        1.151 s
  | RMS charge density error from multipole expansion :   0.145519E-01

  Integrating Hamiltonian matrix: batch-based integration.
  Time summed over all CPUs for integration: real work        2.908 s, elapsed        3.003 s

  Updating Kohn-Sham eigenvalues, eigenvectors, occupation numbers, and Fermi level.
  Solving generalized eigenproblem
  Updating Kohn-Sham eigenvalues and eigenfunctions.
  Solving real generalised eigenvalue problem by standard LAPACK (fast)
  Determining occupation numbers for Kohn-Sham eigenstates.
  | Chemical potential (Fermi level) in eV                 : -.21974942E+01
  | Error in electron count due to remaining E_F inaccuracy: 0.00000000E+00
  | Maximum occupation number of highest empty state:  0.00E+00

  Highest occupied state (VBM) at     -2.19749425 eV
  | Occupation number:      1.00000000

  Lowest unoccupied state (CBM) at    -2.19749425 eV
  | Occupation number:      1.00000000

  Overall HOMO-LUMO gap:      0.00000000 eV.

  Total energy components:
  | Sum of eigenvalues            :        -126.61830080 Ha       -3445.45926776 eV
  | XC energy correction          :         -28.23177528 Ha        -768.22569230 eV
  | XC potential correction       :          36.08623614 Ha         981.95644688 eV
  | Free-atom electrostatic energy:        -107.02857422 Ha       -2912.39568553 eV
  | Hartree energy correction     :          -4.35026146 Ha        -118.37663734 eV
  | van der Waals energy corr.    :           0.00000000 Ha           0.00000000 eV
  | Entropy correction            :          -0.00010367 Ha          -0.00282095 eV
  | ---------------------------
  | Total energy                  :        -230.14267562 Ha       -6262.50083604 eV
  | Total energy, T -> 0          :        -230.14277928 Ha       -6262.50365699 eV  <-- do not rely on this value for anything but (periodic) metals
  | Electronic free energy        :        -230.14288295 Ha       -6262.50647794 eV

  Derived energy quantities:
  | Kinetic energy                :         229.70238597 Ha        6250.51994516 eV
[...]
  | Atom     7: H
  |   Hirshfeld charge        :      0.11853608
  |   Free atom volume        :     10.44207651
  |   Hirshfeld volume        :     11.10633031
  |   Hirshfeld dipole vector :     -0.05666026      -0.04578780       0.01609788
  |   Hirshfeld dipole moment :      0.07460596
  |   Hirshfeld second moments:      0.01626653       0.02103048      -0.00496002
  |                                  0.02103048       0.03227395       0.01423385
  |                                 -0.00496002       0.01423385       0.04032227
  ----------------------------------------------------------------------
  | Atom     8: O
  |   Hirshfeld charge        :     -0.32424034
  |   Free atom volume        :     23.95238533
  |   Hirshfeld volume        :     23.80031081
  |   Hirshfeld dipole vector :      0.02189609       0.02247802       0.07237360
  |   Hirshfeld dipole moment :      0.07888370
  |   Hirshfeld second moments:      0.00922931       0.06485653      -0.02575376
  |                                  0.06485653      -0.03929915      -0.00336611
  |                                 -0.02575376      -0.00336611      -0.03603070
  ----------------------------------------------------------------------
  | Atom     9: H
  |   Hirshfeld charge        :      0.13406085
  |   Free atom volume        :     10.44207651
  |   Hirshfeld volume        :      7.95320451
  |   Hirshfeld dipole vector :      0.09800334       0.06904190       0.03536346
  |   Hirshfeld dipole moment :      0.12498805
  |   Hirshfeld second moments:      0.09385279       0.01721440      -0.01576655
  |                                  0.01721440       0.07533159      -0.00752968
  |                                 -0.01576655      -0.00752968       0.08604684
  ----------------------------------------------------------------------
  | Atom    10: H
  |   Hirshfeld charge        :      0.09366334
  |   Free atom volume        :     10.44207651
  |   Hirshfeld volume        :      9.86336551
  |   Hirshfeld dipole vector :     -0.04520036      -0.02404516       0.07379258
  |   Hirshfeld dipole moment :      0.08981418
  |   Hirshfeld second moments:      0.04399756       0.02846190       0.00031891
  |                                  0.02846190       0.04747512       0.01283650
  |                                  0.00031891       0.01283650       0.03762200
  ----------------------------------------------------------------------


  Total energy components:
  | Sum of eigenvalues            :        -126.61705572 Ha       -3445.42538746 eV
  | XC energy correction          :         -28.23190766 Ha        -768.22929455 eV
  | XC potential correction       :          36.08641269 Ha         981.96125097 eV
  | Free-atom electrostatic energy:        -107.02857422 Ha       -2912.39568553 eV
  | Hartree energy correction     :          -4.35155073 Ha        -118.41172014 eV
  | van der Waals energy corr.    :          -0.00125178 Ha          -0.03406278 eV
  | Entropy correction            :          -0.00010367 Ha          -0.00282095 eV
  | ---------------------------
  | Total energy                  :        -230.14392742 Ha       -6262.53489948 eV
  | Total energy, T -> 0          :        -230.14403109 Ha       -6262.53772043 eV  <-- do not rely on this value for anything but (periodic) metals
  | Electronic free energy        :        -230.14413476 Ha       -6262.54054138 eV

  Derived energy quantities:
  | Kinetic energy                :         229.70258286 Ha        6250.52530288 eV
  | Electrostatic energy          :        -431.61335084 Ha      -11744.79684504 eV
  | Energy correction for multipole
  | error in Hartree potential    :          -0.00098508 Ha          -0.02680531 eV
  | Sum of eigenvalues per atom                           :        -344.54253875 eV
  | Total energy (T->0) per atom                          :        -626.25377204 eV  <-- do not rely on this value for anything but (periodic) metals
  | Electronic free energy per atom                       :        -626.25405414 eV

  atomic forces [eV/Ang]:
  -----------------------
  atom #    1
   Hellmann-Feynman + Multipole  : -.262650E+01 -.661908E+01 -.852626E+01
   Pulay + GGA                   : 0.288916E+01 0.796163E+01 0.676024E+01
   Van der Waals               : 0.467451E-02 0.412145E-02 -.502267E-02
   ----------------------------------------------------------------
   Total forces(   1)            : 0.267336E+00 0.134668E+01 -.177104E+01
  atom #    2
   Hellmann-Feynman + Multipole  : 0.530248E+00 -.107575E+01 0.433746E+00
   Pulay + GGA                   : -.109023E+00 0.128413E+00 -.566428E-01
   Van der Waals               : 0.232288E-02 0.336896E-02 -.275881E-02
   ----------------------------------------------------------------
   Total forces(   2)            : 0.423548E+00 -.943970E+00 0.374345E+00
  atom #    3
   Hellmann-Feynman + Multipole  : -.550085E+00 -.187990E+00 0.631160E-01
   Pulay + GGA                   : 0.148252E+00 0.129130E-02 -.863456E-03
   Van der Waals               : 0.802596E-03 -.163998E-02 -.452313E-02
   ----------------------------------------------------------------
   Total forces(   3)            : -.401030E+00 -.188339E+00 0.577294E-01
  atom #    4
   Hellmann-Feynman + Multipole  : -.106789E+00 -.105775E+00 0.106869E+01
   Pulay + GGA                   : -.353467E-01 -.796759E-02 0.730224E-01
   Van der Waals               : 0.236579E-02 0.295776E-02 0.118580E-02
   ----------------------------------------------------------------
   Total forces(   4)            : -.139770E+00 -.110784E+00 0.114290E+01
  atom #    5
   Hellmann-Feynman + Multipole  : 0.739429E+01 -.561654E+01 -.792774E+01
   Pulay + GGA                   : -.760295E+01 0.407098E+01 0.669518E+01
   Van der Waals               : 0.119194E-02 0.169975E-02 0.456456E-02
   ----------------------------------------------------------------
   Total forces(   5)            : -.207464E+00 -.154387E+01 -.122800E+01
  atom #    6
   Hellmann-Feynman + Multipole  : -.855154E-01 0.943940E+00 0.102259E+01
   Pulay + GGA                   : 0.364037E-01 0.101456E+00 0.113906E+00
   Van der Waals               : -.146690E-02 -.106876E-03 0.861230E-02
   ----------------------------------------------------------------
   Total forces(   6)            : -.505786E-01 0.104529E+01 0.114511E+01
  atom #    7
   Hellmann-Feynman + Multipole  : 0.231283E+00 0.470091E+00 0.256356E+00
   Pulay + GGA                   : -.121678E+00 -.648632E-01 0.494416E-01
   Van der Waals               : -.202932E-03 -.957653E-04 0.319948E-02
   ----------------------------------------------------------------
   Total forces(   7)            : 0.109402E+00 0.405133E+00 0.308997E+00
  atom #    8
   Hellmann-Feynman + Multipole  : -.243149E+01 -.306925E+01 -.170600E+02
   Pulay + GGA                   : 0.320005E+01 0.335462E+01 0.153330E+02
   Van der Waals               : -.538323E-02 -.489286E-02 -.876249E-03
   ----------------------------------------------------------------
   Total forces(   8)            : 0.763177E+00 0.280482E+00 -.172788E+01
  atom #    9
   Hellmann-Feynman + Multipole  : -.432532E+00 -.245132E+00 0.354445E+00
   Pulay + GGA                   : 0.106637E+00 0.719314E-01 0.611334E-01
   Van der Waals               : -.178305E-02 -.199447E-02 -.813739E-03
   ----------------------------------------------------------------
   Total forces(   9)            : -.327678E+00 -.175195E+00 0.414764E+00
  atom #   10
   Hellmann-Feynman + Multipole  : -.337313E+00 -.597121E-01 0.116855E+01
   Pulay + GGA                   : -.962498E-01 -.552387E-01 0.110437E+00
   Van der Waals               : -.252160E-02 -.341798E-02 -.356754E-02
   ----------------------------------------------------------------
   Total forces(  10)            : -.436084E+00 -.118369E+00 0.127542E+01
  Timings for vdw_correction_hirshfeld (Tkatchenko-Scheffler 2009):
  | CPU time:        2.058 s, Wall clock time:        2.058 s.
  Removing unitary transformations (pure translations, rotations) from forces on atoms.
  Atomic forces before filtering:
  | Net force on center of mass :  0.856882E-03 -.294181E-02 -.763969E-02 eV/A
  | Net torque on center of mass:  0.212895E-01 -.149932E-01 -.268288E-02 eV
  Atomic forces after filtering:
  | Net force on center of mass :  0.892031E-16 -.223008E-16 0.535218E-15 eV/A
  | Net torque on center of mass:  -.755268E-15 0.000000E+00 0.944085E-16 eV
 
  Energy and forces in a compact form:
  | Total energy uncorrected      :         -0.626253489948239E+04 eV
  | Total energy corrected        :         -0.626253772043031E+04 eV  <-- do not rely on this value for anything but (periodic) metals
  | Electronic free energy        :         -0.626254054137823E+04 eV
  Total atomic forces (unitary forces cleaned) [eV/Ang]:
  |   1          0.266962680225755E+00          0.134612197049755E+01         -0.176971183612715E+01
  |   2          0.423022339058738E+00         -0.944763448672271E+00          0.375314443245185E+00
  |   3         -0.401411782086636E+00         -0.188798184267569E+00          0.586980506885552E-01
  |   4         -0.139922914701883E+00         -0.110870997844787E+00          0.114435530163221E+01
  |   5         -0.207265047731977E+00         -0.154318756465543E+01         -0.122638771933201E+01
  |   6         -0.503063473541235E-01          0.104627693101979E+01          0.114629427355989E+01
  |   7          0.109699527859296E+00          0.405901508051962E+00          0.311029500495391E+00
  |   8          0.763040970326602E+00          0.281099258539167E+00         -0.172845874127262E+01
  |   9         -0.327777486041942E+00         -0.174350339310100E+00          0.413748824415341E+00
  |  10         -0.436041939553828E+00         -0.117429133358318E+00          0.127511790269521E+01
 
  ------------------------------------ 
  Start decomposition of the XC Energy 
  ------------------------------------ 
  Hartree-Fock part   :          0.000000000 Ha              0.000000000 eV
  ------------------------------------ 
  X Energy            :        -27.233443936 Ha           -741.059714189 eV
  C Energy GGA        :         -0.998463726 Ha            -27.169580357 eV
  Total XC Energy     :        -28.231907662 Ha           -768.229294547 eV
  LDA X and C from self-consistent density 
  X Energy LDA        :        -24.536761407 Ha           -667.679249031 eV
  C Energy LDA        :         -2.017659641 Ha            -54.903312285 eV
  ------------------------------------ 
  End decomposition of the XC Energy 
  ------------------------------------ 
  Performing Hirshfeld analysis of fragment charges and moments.
  ----------------------------------------------------------------------
  | Atom     1: O
  |   Hirshfeld charge        :     -0.12709548
  |   Free atom volume        :     23.95238533
  |   Hirshfeld volume        :     23.25957590
  |   Hirshfeld dipole vector :      0.01246453       0.01571060       0.03601642
  |   Hirshfeld dipole moment :      0.04122342
  |   Hirshfeld second moments:      0.05845290       0.00000303      -0.00889578
  |                                  0.00000303       0.00699099      -0.02566611
  |                                 -0.00889578      -0.02566611       0.02887745
  ----------------------------------------------------------------------
  | Atom     2: H
  |   Hirshfeld charge        :      0.02445934
  |   Free atom volume        :     10.44207651
  |   Hirshfeld volume        :     16.60864966
  |   Hirshfeld dipole vector :      0.03060309      -0.04796565       0.02765981
  |   Hirshfeld dipole moment :      0.06326387
  |   Hirshfeld second moments:     -0.07815914       0.02406778      -0.00211584
  |                                  0.02406778      -0.12450285       0.00995944
  |                                 -0.00211584       0.00995944      -0.07496464
  ----------------------------------------------------------------------
  | Atom     3: H
  |   Hirshfeld charge        :      0.11546806
  |   Free atom volume        :     10.44207651
  |   Hirshfeld volume        :     12.03914205
  |   Hirshfeld dipole vector :      0.04036061       0.00522265       0.01715393
  |   Hirshfeld dipole moment :      0.04416460
  |   Hirshfeld second moments:      0.00291931      -0.00454667      -0.00363288
  |                                 -0.00454667       0.00159178       0.01011697
  |                                 -0.00363288       0.01011697       0.01718430
  ----------------------------------------------------------------------
  | Atom     4: H
  |   Hirshfeld charge        :      0.09151884
  |   Free atom volume        :     10.44207651
  |   Hirshfeld volume        :     10.94066801
  |   Hirshfeld dipole vector :     -0.00250101      -0.00656167       0.02154634
  |   Hirshfeld dipole moment :      0.02266176
  |   Hirshfeld second moments:      0.03100825       0.01970262       0.00258743
  |                                  0.01970262       0.02435974       0.00222795
  |                                  0.00258743       0.00222795       0.00528657
  ----------------------------------------------------------------------
  | Atom     5: O
  |   Hirshfeld charge        :     -0.23081562
  |   Free atom volume        :     23.95238533
  |   Hirshfeld volume        :     22.68193302
  |   Hirshfeld dipole vector :     -0.02215192       0.01705562      -0.00203184
  |   Hirshfeld dipole moment :      0.02803088
  |   Hirshfeld second moments:      0.01270331       0.05719772      -0.01476431
  |                                  0.05719772       0.02016839       0.01841215
  |                                 -0.01476431       0.01841215       0.04358845
  ----------------------------------------------------------------------
  | Atom     6: H
  |   Hirshfeld charge        :      0.10443218
  |   Free atom volume        :     10.44207651
  |   Hirshfeld volume        :     10.82568439
  |   Hirshfeld dipole vector :      0.03045105       0.05242674       0.03654108
  |   Hirshfeld dipole moment :      0.07078898
  |   Hirshfeld second moments:      0.03057755       0.03766701      -0.01280524
  |                                  0.03766701       0.02450586       0.00216507
  |                                 -0.01280524       0.00216507       0.03383409
  ----------------------------------------------------------------------
  | Atom     7: H
  |   Hirshfeld charge        :      0.11853608
  |   Free atom volume        :     10.44207651
  |   Hirshfeld volume        :     11.10633031
  |   Hirshfeld dipole vector :     -0.05666026      -0.04578780       0.01609788
  |   Hirshfeld dipole moment :      0.07460596
  |   Hirshfeld second moments:      0.01626653       0.02103048      -0.00496002
  |                                  0.02103048       0.03227395       0.01423385
  |                                 -0.00496002       0.01423385       0.04032227
  ----------------------------------------------------------------------
  | Atom     8: O
  |   Hirshfeld charge        :     -0.32424034
  |   Free atom volume        :     23.95238533
  |   Hirshfeld volume        :     23.80031081
  |   Hirshfeld dipole vector :      0.02189609       0.02247802       0.07237360
  |   Hirshfeld dipole moment :      0.07888370
  |   Hirshfeld second moments:      0.00922931       0.06485653      -0.02575376
  |                                  0.06485653      -0.03929915      -0.00336611
  |                                 -0.02575376      -0.00336611      -0.03603070
  ----------------------------------------------------------------------
  | Atom     9: H
  |   Hirshfeld charge        :      0.13406085
  |   Free atom volume        :     10.44207651
  |   Hirshfeld volume        :      7.95320451
  |   Hirshfeld dipole vector :      0.09800334       0.06904190       0.03536346
  |   Hirshfeld dipole moment :      0.12498805
  |   Hirshfeld second moments:      0.09385279       0.01721440      -0.01576655
  |                                  0.01721440       0.07533159      -0.00752968
  |                                 -0.01576655      -0.00752968       0.08604684
  ----------------------------------------------------------------------
  | Atom    10: H
  |   Hirshfeld charge        :      0.09366334
  |   Free atom volume        :     10.44207651
  |   Hirshfeld volume        :      9.86336551
  |   Hirshfeld dipole vector :     -0.04520036      -0.02404516       0.07379258
  |   Hirshfeld dipole moment :      0.08981418
  |   Hirshfeld second moments:      0.04399756       0.02846190       0.00031891
  |                                  0.02846190       0.04747512       0.01283650
  |                                  0.00031891       0.01283650       0.03762200
  ----------------------------------------------------------------------


------------------------------------------------------------------------------
  Final output of selected total energy values:

  The following output summarizes some interesting total energy values
  at the end of a run (AFTER all relaxation, molecular dynamics, etc.).

  | Total energy of the DFT / Hartree-Fock s.c.f. calculation      :          -6262.534899482 eV
  | Final zero-broadening corrected energy (caution - metals only) :          -6262.537720430 eV
  | For reference only, the value of 1 Hartree used in FHI-aims is :             27.211384500 eV

  Before relying on these values, please be sure to understand exactly which
  total energy value is referred to by a given number. Different objects may
  all carry the same name 'total energy'. Definitions:

  Total energy of the DFT / Hartree-Fock s.c.f. calculation:
  | Note that this energy does not include ANY quantities calculated after the
  | s.c.f. cycle, in particular not ANY RPA, MP2, etc. many-body perturbation terms.

  Final zero-broadening corrected energy:
  | For metallic systems only, a broadening of the occupation numbers at the Fermi
  | level can be extrapolated back to zero broadening by an electron-gas inspired
  | formula. For all systems that are not real metals, this value can be
  | meaningless and should be avoided.

------------------------------------------------------------------------------

------------------------------------------------------------
          Leaving FHI-aims.
          Date     :  20150727, Time     :  123124.062

          Computational steps:
          | Number of self-consistency cycles          :           14

          Detailed time accounting                     :  max(cpu_time)    wall_clock(cpu1)
          | Total time                                 :       14.300 s          14.320 s
          | Preparation time                           :        0.170 s           0.638 s
          | Grid partitioning                          :        0.103 s           0.103 s
          | Preloading free-atom quantities on grid    :        0.013 s           0.013 s
          | Free-atom superposition energy             :        0.034 s           0.034 s
          | Total time for integrations                :        5.870 s           5.872 s
          | Total time for solution of K.-S. equations :        0.332 s           0.332 s
          | Total time for density & force components  :        4.493 s           4.492 s
          | Total time for mixing                      :        0.111 s           0.111 s
          | Total time for Hartree multipole update    :        0.052 s           0.056 s
          | Total time for Hartree multipole sum       :        2.505 s           2.500 s
          | Total time for total energy evaluation     :        0.006 s           0.005 s
          | Total time for scaled ZORA corrections     :        0.000 s           0.000 s
          | Total time for TS (2009) vdW correction    :        0.024 s           0.025 s

          Have a nice day.
------------------------------------------------------------
