  MPI-parallelism will be employed.
------------------------------------------------------------
          Invoking FHI-aims ...
          Version 081213
          Compiled on 2013/08/29 at 17:41:06 on host generoso.

          When using FHI-aims, please cite the following reference:

          Volker Blum, Ralf Gehrke, Felix Hanke, Paula Havu,
          Ville Havu, Xinguo Ren, Karsten Reuter, and Matthias Scheffler,
          'Ab Initio Molecular Simulations with Numeric Atom-Centered Orbitals: FHI-aims',
          Computer Physics Communications 180, 2175-2196 (2009)

          For any questions about FHI-aims, please visit the aimsclub website
          with its forums and wiki. Contributions to both the forums and the
          wiki are warmly encouraged - they are for you, and everyone is welcome there.

------------------------------------------------------------

  Date     :  20150727, Time     :  114643.710
  Time zero on CPU 1             :   0.419920000000000E-01  s.
  Internal wall clock time zero  :           207229603.710  s.

  Using        8 parallel tasks.
  Task        0 on host gen59 reporting.
  Task        1 on host gen59 reporting.
  Task        2 on host gen59 reporting.
  Task        3 on host gen59 reporting.
  Task        4 on host gen59 reporting.
  Task        5 on host gen59 reporting.
  Task        6 on host gen59 reporting.
  Task        7 on host gen59 reporting.

  Performing system and environment tests:
  | Environment variable OMP_NUM_THREADS correctly set to 1.
  | Checking for scalapack...
  | No scalapack compiled in.

  Obtaining array dimensions for all initial allocations:
  
  -----------------------------------------------------------------------
  Parsing control.in (first pass over file, find array dimensions only).
  The contents of control.in will be repeated verbatim below
  unless switched off by setting 'verbatim_writeout .false.' .
  in the first line of control.in .
  -----------------------------------------------------------------------
  
  #########################################################################################
  #
  #  Volker Blum, FHI 2008 : Test run input file control.in
  #
  #########################################################################################
  #
  #  Physical model
  #
    xc                 rpbe
    spin               none
    relativistic       atomic_zora scalar
    charge             0.
   vdw_correction_hirshfeld
  #
  #  SCF convergence
  #
    occupation_type    gaussian 0.01
    mixer              pulay
      n_max_pulay        10
      charge_mix_param   0.1
    sc_accuracy_rho    5E-5
    sc_accuracy_eev    5E-3
    sc_accuracy_etot   5E-6
    sc_iter_limit      3000
  #
  #  Eigenvalue solver
  #
    KS_method          lapack
      empty_states       8
      basis_threshold    0.e-5
  #
  #  Efficiency
  #
  #   all previous settings are now default, except stratmann still
  #   undecided. Continue to handle stratmann with care, if at all.
  #
  #  partition_type stratmann
    partition_type rho_r2
  #  hartree_partition_type stratmann
  #
  #  Oprions for large clusters (100's of atoms: memory saving / better scaling)
  #
  # for periodic systems:
  #
    density_update_method orbital
    packed_matrix_format none
  #  k_grid 6 6 6
  #  output k_eigenvalue 1
  #  distributed_spline_storage .true.
  #
  #  Relaxation
  #
  #  relax_geometry   bfgs 5.e-3
    sc_accuracy_forces 5.E-4
    final_forces_cleaned .true.
  #
  #  Output options
  #
  #  output mulliken
    output Hirshfeld
  #  output dipole
  
  #harmonic_length_scale 0.001
  
  ################################################################################
  #
  #  FHI-aims code project
  #  VB, Fritz-Haber Institut, 2007
  #
  #  Suggested "safe" defaults for H atom (to be pasted into control.in file)
  #  Basis constructed for a non-relativistic H2 molecule using the
  #  PW-LDA functional.
  #
  ################################################################################
    species        H
  #     global species definitions
      nucleus             1
      cut_pot             4.0  2.0  1.0
      cut_free_atom       finite 8.0
      logarithmic         0.00010000 100.00  1.0123
      basis_dep_cutoff    1d-4  # 1d-4 is safe default - please check 5d-4 if you wish!
      radial_base         24 7.0
      radial_multiplier   2
      angular_grids       specified
        division   0.2783  110
        division   0.3822  194
        division   0.5626  302
  #      division   0.5922  434
  #      division   0.6227  590
  #      division   0.7206  770
        outer_grid  302
      l_hartree           4
  ################################################################################
  #
  #  Definition of "minimal" basis
  #
  ################################################################################
  #     valence basis states
      valence      1  s   1.
  #     ion occupancy
      ion_occ      1  s   0.5
  ################################################################################
  #
  #  Suggested additional basis functions. For production calculations,
  #  uncomment them one after another (the most important basis functions are
  #  listed first).
  #
  ################################################################################
  #  "First tier" - improvements: -1014.90 meV to -62.69 meV
       hydro 2 s 2.1
       hydro 2 p 3.5
  #  "Second tier" - improvements: -12.89 meV to -1.83 meV
       hydro 1 s 0.85
       hydro 2 p 3.7
       hydro 2 s 1.2
       hydro 3 d 7
  #  "Third tier" - improvements: -0.25 meV to -0.12 meV
  #     hydro 4 f 11.2
  #     hydro 3 p 4.8
  #     hydro 4 d 9
  #     hydro 3 s 3.2
  
  ################################################################################
  #
  #  FHI-aims code project
  #  VB, Fritz-Haber Institut, 2007
  #
  #  Suggested "safe" defaults for O atom (to be pasted into control.in file)
  #  All values have been tested for a non-relativistic, non-spinpolarized O2
  #  molecule using the PW-LDA functional. Validity for PBE is expected.
  #
  #  Constructed for dimers: 1.0 A, 1.208 A, 1.5 A, 2.0 A, 3.0 A
  #
  ################################################################################
    species        O
  #     global species definitions
      nucleus             8
      mass                15.9994
      l_hartree           4
      cut_pot             4.0  2.0  1.0
      cut_free_atom       finite 8.0
      basis_dep_cutoff    1d-4  # 1d-4 is safe default - please check 5d-4 if you wish!
      logarithmic         0.00010000 100.00  1.0123
      radial_base         36 7.0
      radial_multiplier   2
       angular_grids specified
        division   0.4087  110
        division   0.5181  194
        division   0.6184  302
  #      division   0.7315  434
  #      division   0.7934  590
  #      division   0.9656  770
  #      division   1.4041  974
  #      outer_grid 974
        outer_grid 302
  ################################################################################
  #
  #  Definition of "minimal" basis
  #
  ################################################################################
  #     valence basis states
      valence      2  s   2.
      valence      2  p   4.
  #     ion occupancy
      ion_occ      2  s   1.
      ion_occ      2  p   3.
  ################################################################################
  #
  #  Suggested additional basis functions. For production calculations,
  #  uncomment them one after another (the most important basis functions are
  #  listed first).
  #
  ################################################################################
  #  "First tier" - improvements: -699.05 meV to -159.38 meV
       hydro 2 p 1.8
       hydro 3 d 7.6
       hydro 3 s 6.4
  #  "Second tier" - improvements: -49.91 meV to -5.39 meV
       hydro 4 f 11.6
       hydro 3 p 6.2
       hydro 3 d 5.6
       hydro 5 g 17.6
       hydro 1 s 0.75
  #  "Third tier" - improvements: -2.83 meV to -0.50 meV
  #     ionic 2 p auto
  #     hydro 4 f 10.8
  #     hydro 4 d 4.7
  #     hydro 2 s 6.8
  #  "Fourth tier" - improvements: -0.40 meV to -0.12 meV
  #     hydro 3 p 5
  #     hydro 3 s 3.3
  #     hydro 5 g 15.6
  #     hydro 4 f 17.6
  #     hydro 4 d 14
  # Further basis functions - -0.08 meV and below
  #     hydro 3 s 2.1
  #     hydro 4 d 11.6
  #     hydro 3 p 16
  #     hydro 2 s 17.2
  
  
  -----------------------------------------------------------------------
  Completed first pass over input file control.in .
  -----------------------------------------------------------------------
  
  
  -----------------------------------------------------------------------
  Parsing geometry.in (first pass over file, find array dimensions only).
  The contents of geometry.in will be repeated verbatim below
  unless switched off by setting 'verbatim_writeout .false.' .
  in the first line of geometry.in .
  -----------------------------------------------------------------------
  
  atom      -4.053030000      0.065001000     -1.525160000  O
  atom      -4.566710000      0.974813000     -1.912820000  H
  atom      -3.067820000      0.330172000     -1.477310000  H
  atom      -4.370360000     -0.049164000     -0.572274000  H
  atom      -4.581760000     -0.256435000      0.939478000  O
  atom      -4.349860000      0.471090000      1.504340000  H
  atom      -5.393870000     -0.726611000      1.228070000  H
  atom      -5.293160000      2.192130000     -2.328800000  O
  atom      -4.829300000      2.988660000     -1.973850000  H
  atom      -5.428570000      2.328640000     -3.235170000  H
  atom      -1.645860000      0.870179000     -1.502250000  O
  atom      -1.568890000      1.501730000     -0.721051000  H
  atom      -0.824432000      0.282220000     -1.377720000  H
  atom      -3.818880000      2.024990000      2.187990000  O
  atom      -3.690880000      1.961360000      3.202150000  H
  atom      -4.546490000      2.751300000      2.045370000  H
  atom      -4.066610000      4.258280000     -0.900064000  O
  atom      -3.224110000      3.876870000     -0.569443000  H
  atom      -3.737450000      5.116530000     -1.322720000  H
  atom      -5.628340000      3.730740000      1.385610000  O
  atom      -6.090650000      4.418470000      1.860350000  H
  atom      -5.158540000      4.200260000      0.615875000  H
  
  -----------------------------------------------------------------------
  Completed first pass over input file geometry.in .
  -----------------------------------------------------------------------
  
 
  Basic array size parameters: 
  | Number of species                 :        2
  | Number of atoms                   :       22
  | Max. basis fn. angular momentum   :        4
  | Max. atomic/ionic basis occupied n:        2
  | Max. number of basis fn. types    :        2
  | Max. radial fns per species/type  :        8
  | Max. logarithmic grid size        :     1301
  | Max. radial integration grid size :       73
  | Max. angular integration grid size:      302
  | Max. angular grid division number :        8
  | Radial grid for Hartree potential :     1301
  | Number of spin channels           :        1

------------------------------------------------------------
          Reading file control.in.
------------------------------------------------------------
  XC: Using RPBE gradient-corrected functionals.
  Spin treatment: No spin polarisation.
  Scalar relativistic treatment of kinetic energy: on-site free-atom approximation to ZORA.
  Charge =   0.000000E+00: Neutral system requested explicitly.
  Using non-empirical van der Waals correction (Hirshfeld partitioning):
  Occupation type: Gaussian broadening, width =   0.100000E-01 eV.
  Using pulay charge density mixing.
  Pulay mixing - number of memorized iterations:   10
  Charge density mixing - mixing parameter:     0.1000
  Convergence accuracy of self-consistent charge density: 0.5000E-04
  Convergence accuracy of sum of eigenvalues: 0.5000E-02
  Convergence accuracy of total energy: 0.5000E-05
  Maximum number of s.-c. iterations  :  3000
  Kohn-Sham eigenvalues and eigenfunctions calculated by lapack diagonalisation (D&C).
  Number of empty states per atom:        8
  Threshold for basis singularities: 0.0000E+00
  Partition function in integrals calculations: rho / r^2
 Using packed matrix format           0
  Convergence accuracy of forces: 0.5000E-03
  Cleaning forces before final output.
  Hirshfeld charge analysis will be performed.
 
  Reading configuration options for species H                   .
  | Found nuclear charge :   1.0000
  | Found cutoff potl. onset [A], width [A], scale factor :    4.00000    2.00000    1.00000
  | Found cutoff specification for free atom: Cutoff potential begins at    8.00000 A.
  | Found logarithmic grid data [bohr] : 0.1000E-03 0.1000E+03 0.1012E+01
  | Threshold for basis-dependent cutoff potential is   0.100000E-03
  | Found data for basic radial integration grid :    24 points, outermost radius =    7.000 A
  | Found multiplier for basic radial grid :   2
  | Found angular grid specification: user-specified.
  | Specified grid contains     4 separate shells.
  | Check grid settings after all constraints further below.
  | Found l_max for Hartree potential  :   4
  | Found free-atom valence shell :  1 s   1.000
  | No ionic wave fns used. Skipping ion_occ.
  | Found hydrogenic basis function :  2 s   2.100
  | Found hydrogenic basis function :  2 p   3.500
  | Found hydrogenic basis function :  1 s   0.850
  | Found hydrogenic basis function :  2 p   3.700
  | Found hydrogenic basis function :  2 s   1.200
  | Found hydrogenic basis function :  3 d   7.000
  Species H                   : Missing cutoff potential type.
  Defaulting to exp(1/x)/(1-x)^2 type cutoff potential.
  Species H : On-site basis accuracy parameter (for Gram-Schmidt orthonormalisation) not specified.
  Using default value basis_acc =  0.1000000E-03.
  Species H                   : Using default innermost maximum threshold i_radial=  2 for radial functions.
  Species H                   : Basic radial grid will be enhanced according to radial_multiplier =   2, to contain    49 grid points.
 
  Reading configuration options for species O                   .
  | Found nuclear charge :   8.0000
  | Found atomic mass :    15.9994000000000      amu
  | Found l_max for Hartree potential  :   4
  | Found cutoff potl. onset [A], width [A], scale factor :    4.00000    2.00000    1.00000
  | Found cutoff specification for free atom: Cutoff potential begins at    8.00000 A.
  | Threshold for basis-dependent cutoff potential is   0.100000E-03
  | Found logarithmic grid data [bohr] : 0.1000E-03 0.1000E+03 0.1012E+01
  | Found data for basic radial integration grid :    36 points, outermost radius =    7.000 A
  | Found multiplier for basic radial grid :   2
  | Found angular grid specification: user-specified.
  | Specified grid contains     4 separate shells.
  | Check grid settings after all constraints further below.
  | Found free-atom valence shell :  2 s   2.000
  | Found free-atom valence shell :  2 p   4.000
  | No ionic wave fns used. Skipping ion_occ.
  | No ionic wave fns used. Skipping ion_occ.
  | Found hydrogenic basis function :  2 p   1.800
  | Found hydrogenic basis function :  3 d   7.600
  | Found hydrogenic basis function :  3 s   6.400
  | Found hydrogenic basis function :  4 f  11.600
  | Found hydrogenic basis function :  3 p   6.200
  | Found hydrogenic basis function :  3 d   5.600
  | Found hydrogenic basis function :  5 g  17.600
  | Found hydrogenic basis function :  1 s   0.750
  Species O                   : Missing cutoff potential type.
  Defaulting to exp(1/x)/(1-x)^2 type cutoff potential.
  Species O : On-site basis accuracy parameter (for Gram-Schmidt orthonormalisation) not specified.
  Using default value basis_acc =  0.1000000E-03.
  Species O                   : Using default innermost maximum threshold i_radial=  2 for radial functions.
  Species O                   : Basic radial grid will be enhanced according to radial_multiplier =   2, to contain    73 grid points.
 
  Finished reading input file 'control.in'. Consistency checks are next.
 
  Target number of points in a grid batch is not set. Defaulting to  100
  Method for grid partitioning is not set. Defaulting to parallel hash+maxmin partitioning.
  Batch size limit is not set. Defaulting to    200
  By default, will store active basis functions for each batch.
  If in need of memory, prune_basis_once .false. can be used to disable this option.
  communication_type for Hartree potential was not specified.
  Defaulting to calc_hartree .
  Pulay mixer: Number of initial linear mixing iterations not set.
  Defaulting to    0 iterations.
  Work space size for distributed Hartree potential not set.
  Defaulting to   0.200000E+03 MB.
  Algorithm-dependent basis array size parameters:
  | n_max_pulay                         :       10
  Geometry relaxation not requested: no relaxation will be performed.
  Handling of forces: Unphysical translation and rotation will be removed from forces.
  No accuracy limit for integral partition fn. given. Defaulting to 0.1000E-14.
  No threshold value for u(r) in integrations given. Defaulting to 0.1000E-05.
  No accuracy for occupation numbers given. Defaulting to 0.1000E-07.
  No threshold value for occupation numbers given. Defaulting to 0.0000E+00.
  No accuracy for fermi level given. Defaulting to 0.1000E-19.
  Maximum # of iterations to find E_F not set. Defaulting to  200.
  Will not use alltoall communication since running on < 1024 CPUs.
  Partitioning for Hartree potential was not defined. Using partition_type for integrals.
  | Reporting present value of keyword multip_moments_threshold  :       0.10000000E-09
  | This value may affect high angular momentum components of the Hartree potential in periodic systems.
  No q(lm)/r^(l+1) cutoff set for long-range Hartree potential.
  | Using default value of  0.100000E-09 .
  | Verify using the multipole_threshold keyword.
  Defaulting to new monopole extrapolation.
  Density update method: Loop over occupied states selected for charge density update.
------------------------------------------------------------


------------------------------------------------------------
          Reading geometry description geometry.in.
------------------------------------------------------------
  Input structure read successfully.
  The structure contains       22 atoms,  and a total of         71.000 electrons.

  Input geometry:
  | No unit cell requested.
  | Atomic structure:
  |       Atom                x [A]            y [A]            z [A]
  |    1: Species O             -4.053030         0.065001        -1.525160
  |    2: Species H             -4.566710         0.974813        -1.912820
  |    3: Species H             -3.067820         0.330172        -1.477310
  |    4: Species H             -4.370360        -0.049164        -0.572274
  |    5: Species O             -4.581760        -0.256435         0.939478
  |    6: Species H             -4.349860         0.471090         1.504340
  |    7: Species H             -5.393870        -0.726611         1.228070
  |    8: Species O             -5.293160         2.192130        -2.328800
  |    9: Species H             -4.829300         2.988660        -1.973850
  |   10: Species H             -5.428570         2.328640        -3.235170
  |   11: Species O             -1.645860         0.870179        -1.502250
  |   12: Species H             -1.568890         1.501730        -0.721051
  |   13: Species H             -0.824432         0.282220        -1.377720
  |   14: Species O             -3.818880         2.024990         2.187990
  |   15: Species H             -3.690880         1.961360         3.202150
  |   16: Species H             -4.546490         2.751300         2.045370
  |   17: Species O             -4.066610         4.258280        -0.900064
  |   18: Species H             -3.224110         3.876870        -0.569443
  |   19: Species H             -3.737450         5.116530        -1.322720
  |   20: Species O             -5.628340         3.730740         1.385610
  |   21: Species H             -6.090650         4.418470         1.860350
  |   22: Species H             -5.158540         4.200260         0.615875
  |

  | The smallest distance between any two atoms is         0.92654057 AA.
  |
  | The first atom of this pair is atom number                      8 .
  | The second atom of this pair is atom number                    10 .

  Structure-dependent array size parameters: 
  | Maximum number of distinct radial functions  :       18
  | Maximum number of basis functions            :      498
  | Number of Kohn-Sham states (occupied + empty):      124
------------------------------------------------------------

------------------------------------------------------------
          Preparing all fixed parts of the calculation.
------------------------------------------------------------
  Determining machine precision:
    2.225073858507201E-308
  Setting up grids for atomic and cluster calculations.

  Creating wave function, potential, and density for free atoms.

  Species: H

  List of occupied orbitals and eigenvalues:
    n    l              occ      energy [Ha]    energy [eV]
    1    0           1.0000        -0.241408        -6.5691


  Species: O

  List of occupied orbitals and eigenvalues:
    n    l              occ      energy [Ha]    energy [eV]
    1    0           2.0000       -18.944147      -515.4965
    2    0           2.0000        -0.883529       -24.0421
    2    1           4.0000        -0.330176        -8.9845

  Creating fixed part of basis set: Ionic, confined, hydrogenic.
 
  H                    hydrogenic:
 
  List of hydrogenic basis orbitals: 
    n    l      effective z      eigenvalue [eV]  inner max. [A]     outer max. [A]     outer radius [A]   
    2    0         2.100000       -14.9965           0.193241           1.317192           5.372934
    2    1         3.500000       -41.6672           0.602363           0.602363           4.056010
    1    0         0.850000        -9.8292           0.624864           0.624864           5.372934
    2    1         3.700000       -46.5653           0.573616           0.573616           3.909951
    2    0         1.200000        -4.5995           0.334977           2.228160           5.505921
    3    2         7.000000       -74.0753           0.680692           0.680692           3.769152
 
 
  O                    hydrogenic:
 
  List of hydrogenic basis orbitals: 
    n    l      effective z      eigenvalue [eV]  inner max. [A]     outer max. [A]     outer radius [A]   
    2    1         1.800000       -11.0118           1.178546           1.178546           5.432516
    3    2         7.600000       -87.3182           0.624117           0.624117           3.541422
    3    0         6.400000       -61.9209           0.061166           1.081887           4.306510
    4    3        11.600000      -114.4238           0.731621           0.731621           3.584982
    3    1         6.200000       -58.1113           0.255677           1.030255           4.306510
    3    2         5.600000       -47.4081           0.847222           0.847222           4.413102
    5    4        17.600000      -168.5799           0.749730           0.749730           3.372413
    1    0         0.750000        -7.6499           0.705275           0.705275           5.366508
 

  Adding cutoff potential to free-atom effective potential.
  Creating atomic-like basis functions for current effective potential.

  Species H                   :

  List of atomic basis orbitals and eigenvalues:
    n    l      energy [Ha]    energy [eV]    outer radius [A]
    1    0        -0.241374        -6.5681       5.372934


  Species O                   :

  List of atomic basis orbitals and eigenvalues:
    n    l      energy [Ha]    energy [eV]    outer radius [A]
    1    0       -18.944147      -515.4965       1.415745
    2    0        -0.883529       -24.0421       5.048305
    2    1        -0.330173        -8.9845       5.301302

  Assembling full basis from fixed parts.
  | Species H :   atomic orbital   1 s accepted.
  | Species H :    hydro orbital   2 s accepted.
  | Species H :    hydro orbital   1 s accepted.
  | Species H :    hydro orbital   2 s accepted.
  | Species H :    hydro orbital   2 p accepted.
  | Species H :    hydro orbital   2 p accepted.
  | Species H :    hydro orbital   3 d accepted.
  | Species O :   atomic orbital   1 s accepted.
  | Species O :    hydro orbital   3 s accepted.
  | Species O :   atomic orbital   2 s accepted.
  | Species O :    hydro orbital   1 s accepted.
  | Species O :    hydro orbital   3 p accepted.
  | Species O :   atomic orbital   2 p accepted.
  | Species O :    hydro orbital   2 p accepted.
  | Species O :    hydro orbital   3 d accepted.
  | Species O :    hydro orbital   3 d accepted.
  | Species O :    hydro orbital   4 f accepted.
  | Species O :    hydro orbital   5 g accepted.
 
  Basis size parameters after reduction:
  | Total number of radial functions:       18
  | Total number of basis functions :      498
 
  Testing on-site integration grid accuracy.
  |  Species  Function  <phi|h_atom|phi> (log., in eV)  <phi|h_atom|phi> (rad., in eV)
           1        1                 -6.5683835025                 -6.5684759159
           1        2                 13.3711789951                 13.3708738703
           1        3                 23.6590910787                 23.6532055418
           1        4                 16.2963827186                 16.1870710655 ***
           1        5                 28.7627214838                 28.7627215090
           1        6                 59.5965249172                 59.5965950857
           1        7                 60.2220506392                 60.2220503827
           2        8               -515.4964576505               -515.4964530710
           2        9                 15.3030791347                 15.3030722972
           2       10                -21.7296094581                -21.7296135470
           2       11                 14.2969371730                 14.2969701621
           2       12                 21.0679693190                 21.0679697493
           2       13                 -2.3833606469                 -2.3833613176
           2       14                 13.7067136422                 13.7066766629
           2       15                 45.8013116808                 45.8013116965
           2       16                 52.2309815402                 52.2309831494
           2       17                 85.4120732416                 85.4120732763
           2       18                142.1019167745                142.1019167817
 * Note: Onsite integrals marked "***" above are less accurate than
 * onsite_accuracy_threshold =    0.03000 eV. Usually, this is harmless.
 * When in doubt, tighten the "radial" and/or "radial_multiplier" flags to check.

  Preparing densities etc. for the partition functions (integrals / Hartree potential).

  Preparations completed.
  max(cpu_time)          :      0.173 s.
  Wall clock time (cpu1) :      0.532 s.
------------------------------------------------------------

------------------------------------------------------------
          Begin self-consistency loop: Initialization.

          Date     :  20150727, Time     :  114644.269
------------------------------------------------------------

  Initializing index lists of integration centers etc. from given atomic structure:
  | Number of centers in hartree potential         :        22
  | Number of centers in hartree multipole         :        22
  | Number of centers in electron density summation:        22
  | Number of centers in basis integrals           :        22
  | Number of centers in integrals                 :        22
  Partitioning the integration grid into batches with parallel hashing+maxmin method.
  | Number of batches:     2666
  | Maximal batch size:     200
  | Minimal batch size:      50
  | Average batch size:     107.647
  | Standard deviation of batch sizes:      31.709

  Integration load balanced across     8 MPI tasks.
  Work distribution over tasks is as follows:
  Task     0 has      35926 integration points.
  Task     1 has      35819 integration points.
  Task     2 has      35797 integration points.
  Task     3 has      35913 integration points.
  Task     4 has      35913 integration points.
  Task     5 has      35906 integration points.
  Task     6 has      35905 integration points.
  Task     7 has      35809 integration points.
  Initializing partition tables, free-atom densities, potentials, etc. across the integration grid (initialize_grid_storage).
  | Net number of integration points:   286988
  | of which are non-zero points    :   286405
  Obtaining max. number of non-zero basis functions in each batch (get_n_compute_maxes).
  | Maximal number of non-zero basis functions:      493 in task     0
  | Maximal number of non-zero basis functions:      488 in task     1
  | Maximal number of non-zero basis functions:      492 in task     2
  | Maximal number of non-zero basis functions:      492 in task     3
  | Maximal number of non-zero basis functions:      492 in task     4
  | Maximal number of non-zero basis functions:      493 in task     5
  | Maximal number of non-zero basis functions:      492 in task     6
  | Maximal number of non-zero basis functions:      493 in task     7
  Integrating Hamiltonian matrix: batch-based integration.
  Time summed over all CPUs for integration: real work       16.554 s, elapsed       16.899 s
  Integrating overlap matrix.
  Time summed over all CPUs for integration: real work        9.133 s, elapsed        9.403 s

  Updating Kohn-Sham eigenvalues, eigenvectors, occupation numbers, and Fermi level.
  Solving generalized eigenproblem
  Updating Kohn-Sham eigenvalues and eigenfunctions.
  Transforming overlap matrix and checking for singularities.
  Overlap matrix is nonsingular:
  | Lowest eigenvalue:  0.153450E-03
  Solving real generalised eigenvalue problem by standard LAPACK (fast)
  Determining occupation numbers for Kohn-Sham eigenstates.
  | Chemical potential (Fermi level) in eV                 : -.28512837E+01
  | Error in electron count due to remaining E_F inaccuracy: -.10436025E-08
  | Maximum occupation number of highest empty state:  0.00E+00

  Writing Kohn-Sham eigenvalues.

  State    Occupation    Eigenvalue [Ha]    Eigenvalue [eV]
      1       2.00000         -19.065401         -518.79596
      2       2.00000         -19.064977         -518.78441
      3       2.00000         -19.059280         -518.62941
      4       2.00000         -19.050644         -518.39441
      5       2.00000         -19.045365         -518.25076
      6       2.00000         -19.042494         -518.17262
      7       2.00000         -19.032276         -517.89459
      8       2.00000          -1.132241          -30.80984
      9       2.00000          -1.118070          -30.42422
     10       2.00000          -1.105612          -30.08522
     11       2.00000          -1.100596          -29.94874
     12       2.00000          -1.088987          -29.63284
     13       2.00000          -1.081666          -29.43363
     14       2.00000          -1.063892          -28.94997
     15       2.00000          -0.655431          -17.83519
     16       2.00000          -0.654058          -17.79783
     17       2.00000          -0.648085          -17.63528
     18       2.00000          -0.632222          -17.20362
     19       2.00000          -0.627301          -17.06973
     20       2.00000          -0.608061          -16.54617
     21       2.00000          -0.603778          -16.42963
     22       2.00000          -0.602470          -16.39404
     23       2.00000          -0.544664          -14.82105
     24       2.00000          -0.524804          -14.28064
     25       2.00000          -0.516950          -14.06693
     26       2.00000          -0.507159          -13.80050
     27       2.00000          -0.504529          -13.72894
     28       2.00000          -0.488616          -13.29593
     29       2.00000          -0.482173          -13.12059
     30       2.00000          -0.453096          -12.32938
     31       2.00000          -0.446602          -12.15266
     32       2.00000          -0.440613          -11.98968
     33       2.00000          -0.437577          -11.90708
     34       2.00000          -0.435864          -11.86047
     35       2.00000          -0.424884          -11.56169
     36       1.00000          -0.104783           -2.85128
     37       0.00000          -0.072467           -1.97191
     38       0.00000          -0.069413           -1.88882
     39       0.00000          -0.056161           -1.52823
     40       0.00000          -0.040943           -1.11412
     41       0.00000          -0.037240           -1.01334
     42       0.00000          -0.018752           -0.51026
     43       0.00000           0.008434            0.22951
     44       0.00000           0.021292            0.57938
     45       0.00000           0.028718            0.78147
     46       0.00000           0.036250            0.98641
     47       0.00000           0.045830            1.24710
     48       0.00000           0.047077            1.28102
     49       0.00000           0.056294            1.53185
     50       0.00000           0.063874            1.73811
     51       0.00000           0.070047            1.90609
     52       0.00000           0.076232            2.07437
     53       0.00000           0.085462            2.32554
     54       0.00000           0.088697            2.41356
     55       0.00000           0.095004            2.58518
     56       0.00000           0.095838            2.60787
     57       0.00000           0.107323            2.92041
     58       0.00000           0.112632            3.06488
     59       0.00000           0.115152            3.13345
     60       0.00000           0.124852            3.39740
     61       0.00000           0.128831            3.50567
     62       0.00000           0.130929            3.56276
     63       0.00000           0.135740            3.69368
     64       0.00000           0.138922            3.78026
     65       0.00000           0.147398            4.01090
     66       0.00000           0.153101            4.16609
     67       0.00000           0.165894            4.51421
     68       0.00000           0.171215            4.65901
     69       0.00000           0.179641            4.88827
     70       0.00000           0.188974            5.14225
     71       0.00000           0.193504            5.26552
     72       0.00000           0.205579            5.59408
     73       0.00000           0.225806            6.14451
     74       0.00000           0.232198            6.31844
     75       0.00000           0.238925            6.50147
     76       0.00000           0.244909            6.66432
     77       0.00000           0.254566            6.92709
     78       0.00000           0.278828            7.58729
     79       0.00000           0.292737            7.96577
     80       0.00000           0.299714            8.15563
     81       0.00000           0.301510            8.20451
     82       0.00000           0.304679            8.29074
     83       0.00000           0.311437            8.47462
     84       0.00000           0.325480            8.85676
     85       0.00000           0.338747            9.21776
     86       0.00000           0.354188            9.63794
     87       0.00000           0.359128            9.77237
     88       0.00000           0.372276           10.13015
     89       0.00000           0.373782           10.17114
     90       0.00000           0.381818           10.38979
     91       0.00000           0.387700           10.54986
     92       0.00000           0.393402           10.70502
     93       0.00000           0.405609           11.03719
     94       0.00000           0.414162           11.26992
     95       0.00000           0.427743           11.63949
     96       0.00000           0.431884           11.75216
     97       0.00000           0.439785           11.96717
     98       0.00000           0.452396           12.31033
     99       0.00000           0.465646           12.67086
    100       0.00000           0.470798           12.81106
    101       0.00000           0.475064           12.92715
    102       0.00000           0.491776           13.38190
    103       0.00000           0.505083           13.74402
    104       0.00000           0.507668           13.81434
    105       0.00000           0.527476           14.35335
    106       0.00000           0.542899           14.77304
    107       0.00000           0.560239           15.24487
    108       0.00000           0.571646           15.55529
    109       0.00000           0.587699           15.99210
    110       0.00000           0.598322           16.28116
    111       0.00000           0.605091           16.46537
    112       0.00000           0.623526           16.96700
    113       0.00000           0.642175           17.47448
    114       0.00000           0.671774           18.27991
    115       0.00000           0.678831           18.47192
    116       0.00000           0.703023           19.13024
    117       0.00000           0.720633           19.60943
    118       0.00000           0.741200           20.16907
    119       0.00000           0.757833           20.62169
    120       0.00000           0.773020           21.03495
    121       0.00000           0.784973           21.36020
    122       0.00000           0.794498           21.61938
    123       0.00000           0.803097           21.85339
    124       0.00000           0.808473           21.99968

  Highest occupied state (VBM) at    -11.56168681 eV
  | Occupation number:      2.00000000

  Lowest unoccupied state (CBM) at    -2.85128372 eV
  | Occupation number:      1.00000000

  Overall HOMO-LUMO gap:      8.71040309 eV.
  Calculating total energy contributions from superposition of free atom densities.

  Total energy components:
  | Sum of eigenvalues            :        -304.68565569 Ha       -8290.91852852 eV
  | XC energy correction          :         -64.23910795 Ha       -1748.03506631 eV
  | XC potential correction       :          82.11241311 Ha        2234.39244549 eV
  | Free-atom electrostatic energy:        -249.96306303 Ha       -6801.84101879 eV
  | Hartree energy correction     :           0.00000000 Ha           0.00000000 eV
  | van der Waals energy corr.    :           0.00000000 Ha           0.00000000 eV
  | Entropy correction            :          -0.00010367 Ha          -0.00282095 eV
  | ---------------------------
  | Total energy                  :        -536.77541355 Ha      -14606.40216814 eV
  | Total energy, T -> 0          :        -536.77551721 Ha      -14606.40498909 eV  <-- do not rely on this value for anything but (periodic) metals
  | Electronic free energy        :        -536.77562088 Ha      -14606.40781004 eV

  Derived energy quantities:
  | Kinetic energy                :         531.67110376 Ha       14467.50683209 eV
  | Electrostatic energy          :       -1004.20740936 Ha      -27325.87393392 eV
  | Energy correction for multipole
  | error in Hartree potential    :           0.00000000 Ha           0.00000000 eV
  | Sum of eigenvalues per atom                           :        -376.85993311 eV
  | Total energy (T->0) per atom                          :        -663.92749950 eV  <-- do not rely on this value for anything but (periodic) metals
  | Electronic free energy per atom                       :        -663.92762773 eV
  Initialize hartree_potential_storage
  Max. number of atoms included in rho_multipole:           22

  End scf initialization - timings             :  max(cpu_time)    wall_clock(cpu1)
  | Time for scf. initialization               :        4.414 s           4.415 s
  | Boundary condition initialization          :        0.000 s           0.000 s
  | Integration                                :        3.296 s           3.295 s
  | Solution of K.-S. eqns.                    :        0.478 s           0.478 s
  | Grid partitioning                          :        0.220 s           0.220 s
  | Preloading free-atom quantities on grid    :        0.014 s           0.014 s
  | Free-atom superposition energy             :        0.125 s           0.125 s
  | Total energy evaluation                    :        0.000 s           0.000 s
------------------------------------------------------------

------------------------------------------------------------
          Begin self-consistency iteration #    1

  Date     :  20150727, Time     :  114648.684
------------------------------------------------------------
  Evaluating new KS density.
  Integration grid: deviation in total charge (<rho> - N_e) =  -1.043560E-09
  Pulay mixing of updated and previous charge densities.

  Evaluating partitioned Hartree potential by multipole expansion.
  | Analytical far-field extrapolation by fixed multipoles:
  | Hartree multipole sum: apparent total charge =  -0.187388E-05
  Summing up the Hartree potential.
  Time summed over all CPUs for potential: real work        5.434 s, elapsed        5.463 s
  | RMS charge density error from multipole expansion :   0.196697E-02

  Integrating Hamiltonian matrix: batch-based integration.
  Time summed over all CPUs for integration: real work       16.542 s, elapsed       16.903 s

  Updating Kohn-Sham eigenvalues, eigenvectors, occupation numbers, and Fermi level.
  Solving generalized eigenproblem
  Updating Kohn-Sham eigenvalues and eigenfunctions.
  Solving real generalised eigenvalue problem by standard LAPACK (fast)
  Determining occupation numbers for Kohn-Sham eigenstates.
  | Chemical potential (Fermi level) in eV                 : -.25815119E+01
  | Error in electron count due to remaining E_F inaccuracy: 0.00000000E+00
  | Maximum occupation number of highest empty state:  0.00E+00

  Writing Kohn-Sham eigenvalues.

  State    Occupation    Eigenvalue [Ha]    Eigenvalue [eV]
      1       2.00000         -19.004040         -517.12624
      2       2.00000         -18.993280         -516.83344
      3       2.00000         -18.983333         -516.56276
      4       2.00000         -18.975003         -516.33611
      5       2.00000         -18.974959         -516.33490
      6       2.00000         -18.974358         -516.31856
      7       2.00000         -18.953951         -515.76325
      8       2.00000          -1.099847          -29.92835
      9       2.00000          -1.083006          -29.47009
     10       2.00000          -1.068079          -29.06391
     11       2.00000          -1.062697          -28.91745
     12       2.00000          -1.053266          -28.66084
     13       2.00000          -1.048041          -28.51865
     14       2.00000          -1.022570          -27.82555
     15       2.00000          -0.623474          -16.96560
     16       2.00000          -0.622587          -16.94145
     17       2.00000          -0.618754          -16.83715
     18       2.00000          -0.599978          -16.32624
     19       2.00000          -0.598551          -16.28740
     20       2.00000          -0.577688          -15.71968
     21       2.00000          -0.573961          -15.61827
     22       2.00000          -0.568656          -15.47391
     23       2.00000          -0.511451          -13.91728
     24       2.00000          -0.488500          -13.29276
     25       2.00000          -0.481161          -13.09305
     26       2.00000          -0.472810          -12.86583
     27       2.00000          -0.467898          -12.73214
     28       2.00000          -0.451871          -12.29604
     29       2.00000          -0.444951          -12.10773
     30       2.00000          -0.416831          -11.34256
     31       2.00000          -0.407281          -11.08268
     32       2.00000          -0.403198          -10.97158
     33       2.00000          -0.400747          -10.90489
     34       2.00000          -0.397847          -10.82596
     35       2.00000          -0.382366          -10.40472
     36       1.00000          -0.094869           -2.58151
     37       0.00000          -0.063688           -1.73304
     38       0.00000          -0.060111           -1.63571
     39       0.00000          -0.047366           -1.28890
     40       0.00000          -0.032991           -0.89774
     41       0.00000          -0.028638           -0.77927
     42       0.00000          -0.010290           -0.28000
     43       0.00000           0.018592            0.50592
     44       0.00000           0.031731            0.86345
     45       0.00000           0.037530            1.02125
     46       0.00000           0.045520            1.23865
     47       0.00000           0.053052            1.44361
     48       0.00000           0.057943            1.57671
     49       0.00000           0.065846            1.79175
     50       0.00000           0.069787            1.89899
     51       0.00000           0.079344            2.15907
     52       0.00000           0.087322            2.37615
     53       0.00000           0.095731            2.60497
     54       0.00000           0.098109            2.66969
     55       0.00000           0.103817            2.82501
     56       0.00000           0.108809            2.96083
     57       0.00000           0.120973            3.29185
     58       0.00000           0.124034            3.37514
     59       0.00000           0.127167            3.46039
     60       0.00000           0.135560            3.68878
     61       0.00000           0.138318            3.76381
     62       0.00000           0.138816            3.77738
     63       0.00000           0.145527            3.95999
     64       0.00000           0.154157            4.19482
     65       0.00000           0.158498            4.31296
     66       0.00000           0.173373            4.71773
     67       0.00000           0.177358            4.82616
     68       0.00000           0.182121            4.95576
     69       0.00000           0.189238            5.14942
     70       0.00000           0.199107            5.41798
     71       0.00000           0.203417            5.53526
     72       0.00000           0.215907            5.87514
     73       0.00000           0.236177            6.42670
     74       0.00000           0.240837            6.55351
     75       0.00000           0.248695            6.76733
     76       0.00000           0.254491            6.92504
     77       0.00000           0.263143            7.16050
     78       0.00000           0.287920            7.83471
     79       0.00000           0.301976            8.21718
     80       0.00000           0.308144            8.38501
     81       0.00000           0.308208            8.38677
     82       0.00000           0.313026            8.51788
     83       0.00000           0.320634            8.72490
     84       0.00000           0.334001            9.08863
     85       0.00000           0.347849            9.46544
     86       0.00000           0.362922            9.87562
     87       0.00000           0.369003           10.04109
     88       0.00000           0.380541           10.35505
     89       0.00000           0.382234           10.40112
     90       0.00000           0.391279           10.64724
     91       0.00000           0.397078           10.80505
     92       0.00000           0.403301           10.97438
     93       0.00000           0.414606           11.28201
     94       0.00000           0.424591           11.55372
     95       0.00000           0.437818           11.91363
     96       0.00000           0.442147           12.03142
     97       0.00000           0.449433           12.22970
     98       0.00000           0.462014           12.57204
     99       0.00000           0.474471           12.91102
    100       0.00000           0.481594           13.10483
    101       0.00000           0.483466           13.15578
    102       0.00000           0.501791           13.65444
    103       0.00000           0.516332           14.05012
    104       0.00000           0.520210           14.15562
    105       0.00000           0.540252           14.70099
    106       0.00000           0.554400           15.08599
    107       0.00000           0.571712           15.55707
    108       0.00000           0.583617           15.88103
    109       0.00000           0.599354           16.30926
    110       0.00000           0.610384           16.60939
    111       0.00000           0.616695           16.78113
    112       0.00000           0.635647           17.29683
    113       0.00000           0.654001           17.79627
    114       0.00000           0.685189           18.64495
    115       0.00000           0.690938           18.80137
    116       0.00000           0.715557           19.47129
    117       0.00000           0.734865           19.99670
    118       0.00000           0.753792           20.51174
    119       0.00000           0.770662           20.97077
    120       0.00000           0.785627           21.37800
    121       0.00000           0.796979           21.68691
    122       0.00000           0.806798           21.95409
    123       0.00000           0.814003           22.15016
    124       0.00000           0.820013           22.31370

  Highest occupied state (VBM) at     -2.58151192 eV
  | Occupation number:      1.00000000

  Lowest unoccupied state (CBM) at    -2.58151192 eV
  | Occupation number:      1.00000000

  Overall HOMO-LUMO gap:      0.00000000 eV.

  Total energy components:
  | Sum of eigenvalues            :        -301.70884947 Ha       -8209.91551004 eV
  | XC energy correction          :         -64.54860692 Ha       -1756.45696191 eV
  | XC potential correction       :          82.51623008 Ha        2245.38086418 eV
  | Free-atom electrostatic energy:        -249.96306303 Ha       -6801.84101879 eV
  | Hartree energy correction     :          -2.90783130 Ha         -79.12611554 eV
  | van der Waals energy corr.    :           0.00000000 Ha           0.00000000 eV
  | Entropy correction            :          -0.00010367 Ha          -0.00282095 eV
  | ---------------------------
  | Total energy                  :        -536.61212064 Ha      -14601.95874210 eV
  | Total energy, T -> 0          :        -536.61222431 Ha      -14601.96156305 eV  <-- do not rely on this value for anything but (periodic) metals
  | Electronic free energy        :        -536.61232798 Ha      -14601.96438400 eV

  Derived energy quantities:
  | Kinetic energy                :         533.54122716 Ha       14518.39547875 eV
  | Electrostatic energy          :       -1005.60474087 Ha      -27363.89725894 eV
  | Energy correction for multipole
  | error in Hartree potential    :           0.00029406 Ha           0.00800190 eV
  | Sum of eigenvalues per atom                           :        -373.17797773 eV
  | Total energy (T->0) per atom                          :        -663.72552559 eV  <-- do not rely on this value for anything but (periodic) metals
  | Electronic free energy per atom                       :        -663.72565382 eV

  Self-consistency convergence accuracy:
  | Change of charge density      : 0.7458E+00
  | Change of sum of eigenvalues  : 0.8100E+02 eV
  | Change of total energy        : 0.4443E+01 eV

  End self-consistency iteration #     1       :  max(cpu_time)    wall_clock(cpu1)
  | Time for this iteration                    :        4.314 s           4.313 s
  | Charge density update                      :        1.373 s           1.372 s
  | Density mixing                             :        0.005 s           0.005 s
  | Hartree multipole update                   :        0.007 s           0.007 s
  | Hartree multipole summation                :        0.684 s           0.684 s
  | Integration                                :        2.117 s           2.117 s
  | Solution of K.-S. eqns.                    :        0.127 s           0.127 s
  | Total energy evaluation                    :        0.000 s           0.000 s
------------------------------------------------------------

------------------------------------------------------------
          Begin self-consistency iteration #    2

  Date     :  20150727, Time     :  114652.998
------------------------------------------------------------
  Evaluating new KS density.
  Integration grid: deviation in total charge (<rho> - N_e) =   2.842171E-14
  Pulay mixing of updated and previous charge densities.

  Evaluating partitioned Hartree potential by multipole expansion.
  | Analytical far-field extrapolation by fixed multipoles:
  | Hartree multipole sum: apparent total charge =  -0.537368E-05
  Summing up the Hartree potential.
  Time summed over all CPUs for potential: real work        5.434 s, elapsed        5.462 s
  | RMS charge density error from multipole expansion :   0.805907E-02

  Integrating Hamiltonian matrix: batch-based integration.
  Time summed over all CPUs for integration: real work       16.531 s, elapsed       16.869 s

  Updating Kohn-Sham eigenvalues, eigenvectors, occupation numbers, and Fermi level.
  Solving generalized eigenproblem
  Updating Kohn-Sham eigenvalues and eigenfunctions.
  Solving real generalised eigenvalue problem by standard LAPACK (fast)
  Determining occupation numbers for Kohn-Sham eigenstates.
  | Chemical potential (Fermi level) in eV                 : -.19443797E+01
  | Error in electron count due to remaining E_F inaccuracy: 0.16145094E-08
  | Maximum occupation number of highest empty state:  0.00E+00

  Highest occupied state (VBM) at     -1.94437970 eV
  | Occupation number:      1.00000000

  Lowest unoccupied state (CBM) at    -1.17775941 eV
  | Occupation number:      0.00000000

  Overall HOMO-LUMO gap:      0.76662029 eV.

  Total energy components:
  | Sum of eigenvalues            :        -294.43442489 Ha       -8011.96834582 eV
  | XC energy correction          :         -65.34325259 Ha       -1778.08037081 eV
  | XC potential correction       :          83.55093034 Ha        2273.53649074 eV
  | Free-atom electrostatic energy:        -249.96306303 Ha       -6801.84101879 eV
  | Hartree energy correction     :         -10.23560925 Ha        -278.52509881 eV
  | van der Waals energy corr.    :           0.00000000 Ha           0.00000000 eV
  | Entropy correction            :          -0.00010367 Ha          -0.00282095 eV
  | ---------------------------
  | Total energy                  :        -536.42541942 Ha      -14596.87834349 eV
  | Total energy, T -> 0          :        -536.42552309 Ha      -14596.88116444 eV  <-- do not rely on this value for anything but (periodic) metals
  | Electronic free energy        :        -536.42562676 Ha      -14596.88398538 eV

  Derived energy quantities:
  | Kinetic energy                :         537.50915648 Ha       14626.36832915 eV
  | Electrostatic energy          :       -1008.59132331 Ha      -27445.16630183 eV
  | Energy correction for multipole
  | error in Hartree potential    :          -0.00021905 Ha          -0.00596064 eV
  | Sum of eigenvalues per atom                           :        -364.18037936 eV
  | Total energy (T->0) per atom                          :        -663.49459838 eV  <-- do not rely on this value for anything but (periodic) metals
  | Electronic free energy per atom                       :        -663.49472661 eV

  Self-consistency convergence accuracy:
  | Change of charge density      : 0.5675E+00
  | Change of sum of eigenvalues  : 0.1979E+03 eV
  | Change of total energy        : 0.5080E+01 eV

  End self-consistency iteration #     2       :  max(cpu_time)    wall_clock(cpu1)
  | Time for this iteration                    :        4.304 s           4.304 s
  | Charge density update                      :        1.367 s           1.366 s
  | Density mixing                             :        0.008 s           0.008 s
  | Hartree multipole update                   :        0.007 s           0.007 s
  | Hartree multipole summation                :        0.684 s           0.683 s
  | Integration                                :        2.112 s           2.112 s
  | Solution of K.-S. eqns.                    :        0.127 s           0.127 s
  | Total energy evaluation                    :        0.000 s           0.000 s
------------------------------------------------------------

------------------------------------------------------------
          Begin self-consistency iteration #    3

  Date     :  20150727, Time     :  114657.302
------------------------------------------------------------
  Evaluating new KS density.
  Integration grid: deviation in total charge (<rho> - N_e) =   1.614524E-09
  Pulay mixing of updated and previous charge densities.

  Evaluating partitioned Hartree potential by multipole expansion.
  | Analytical far-field extrapolation by fixed multipoles:
  | Hartree multipole sum: apparent total charge =  -0.517785E-05
  Summing up the Hartree potential.
  Time summed over all CPUs for potential: real work        5.433 s, elapsed        5.461 s
  | RMS charge density error from multipole expansion :   0.167827E-01

  Integrating Hamiltonian matrix: batch-based integration.
  Time summed over all CPUs for integration: real work       16.525 s, elapsed       16.868 s

  Updating Kohn-Sham eigenvalues, eigenvectors, occupation numbers, and Fermi level.
  Solving generalized eigenproblem
  Updating Kohn-Sham eigenvalues and eigenfunctions.
  Solving real generalised eigenvalue problem by standard LAPACK (fast)
  Determining occupation numbers for Kohn-Sham eigenstates.
  | Chemical potential (Fermi level) in eV                 : -.18448728E+01
  | Error in electron count due to remaining E_F inaccuracy: -.77591267E-11
  | Maximum occupation number of highest empty state:  0.00E+00

  Highest occupied state (VBM) at     -7.46576588 eV
  | Occupation number:      2.00000000

  Lowest unoccupied state (CBM) at    -1.84487278 eV
  | Occupation number:      1.00000000

  Overall HOMO-LUMO gap:      5.62089310 eV.

  Total energy components:
  | Sum of eigenvalues            :        -294.65791096 Ha       -8018.04971096 eV
  | XC energy correction          :         -65.36600020 Ha       -1778.69936462 eV
  | XC potential correction       :          83.56856738 Ha        2274.01641915 eV
  | Free-atom electrostatic energy:        -249.96306303 Ha       -6801.84101879 eV
  | Hartree energy correction     :         -10.00451755 Ha        -272.23677369 eV
  | van der Waals energy corr.    :           0.00000000 Ha           0.00000000 eV
  | Entropy correction            :          -0.00010367 Ha          -0.00282095 eV
  | ---------------------------
  | Total energy                  :        -536.42292434 Ha      -14596.81044892 eV
  | Total energy, T -> 0          :        -536.42302801 Ha      -14596.81326987 eV  <-- do not rely on this value for anything but (periodic) metals
  | Electronic free energy        :        -536.42313168 Ha      -14596.81609082 eV

  Derived energy quantities:
  | Kinetic energy                :         535.00120913 Ha       14558.12360973 eV
  | Electrostatic energy          :       -1006.05813328 Ha      -27376.23469403 eV
  | Energy correction for multipole
  | error in Hartree potential    :          -0.00807248 Ha          -0.21966330 eV
  | Sum of eigenvalues per atom                           :        -364.45680504 eV
  | Total energy (T->0) per atom                          :        -663.49151227 eV  <-- do not rely on this value for anything but (periodic) metals
  | Electronic free energy per atom                       :        -663.49164049 eV

  Self-consistency convergence accuracy:
  | Change of charge density      : 0.2719E+00
  | Change of sum of eigenvalues  : -.6081E+01 eV
  | Change of total energy        : 0.6789E-01 eV

  End self-consistency iteration #     3       :  max(cpu_time)    wall_clock(cpu1)
  | Time for this iteration                    :        4.307 s           4.307 s
  | Charge density update                      :        1.367 s           1.367 s
  | Density mixing                             :        0.010 s           0.010 s
  | Hartree multipole update                   :        0.007 s           0.007 s
  | Hartree multipole summation                :        0.684 s           0.684 s
  | Integration                                :        2.112 s           2.112 s
  | Solution of K.-S. eqns.                    :        0.127 s           0.126 s
  | Total energy evaluation                    :        0.000 s           0.000 s
------------------------------------------------------------

------------------------------------------------------------
          Begin self-consistency iteration #    4

  Date     :  20150727, Time     :  114701.609
------------------------------------------------------------
  Evaluating new KS density.
  Integration grid: deviation in total charge (<rho> - N_e) =  -7.730705E-12
  Pulay mixing of updated and previous charge densities.

  Evaluating partitioned Hartree potential by multipole expansion.
  | Analytical far-field extrapolation by fixed multipoles:
  | Hartree multipole sum: apparent total charge =  -0.578629E-05
  Summing up the Hartree potential.
  Time summed over all CPUs for potential: real work        5.441 s, elapsed        5.508 s
  | RMS charge density error from multipole expansion :   0.199245E-01

  Integrating Hamiltonian matrix: batch-based integration.
  Time summed over all CPUs for integration: real work       16.520 s, elapsed       16.871 s

  Updating Kohn-Sham eigenvalues, eigenvectors, occupation numbers, and Fermi level.
  Solving generalized eigenproblem
  Updating Kohn-Sham eigenvalues and eigenfunctions.
  Solving real generalised eigenvalue problem by standard LAPACK (fast)
  Determining occupation numbers for Kohn-Sham eigenstates.
  | Chemical potential (Fermi level) in eV                 : -.17231725E+01
  | Error in electron count due to remaining E_F inaccuracy: 0.00000000E+00
  | Maximum occupation number of highest empty state:  0.00E+00

  Highest occupied state (VBM) at     -1.72317245 eV
  | Occupation number:      1.00000000

  Lowest unoccupied state (CBM) at    -1.72317245 eV
  | Occupation number:      1.00000000

  Overall HOMO-LUMO gap:      0.00000000 eV.

  Total energy components:
  | Sum of eigenvalues            :        -293.36507945 Ha       -7982.86997587 eV
  | XC energy correction          :         -65.53306712 Ha       -1783.24548681 eV
  | XC potential correction       :          83.78365592 Ha        2279.86927607 eV
  | Free-atom electrostatic energy:        -249.96306303 Ha       -6801.84101879 eV
  | Hartree energy correction     :         -11.33948441 Ha        -308.56307031 eV
  | van der Waals energy corr.    :           0.00000000 Ha           0.00000000 eV
  | Entropy correction            :          -0.00010367 Ha          -0.00282095 eV
  | ---------------------------
  | Total energy                  :        -536.41703809 Ha      -14596.65027572 eV
  | Total energy, T -> 0          :        -536.41714175 Ha      -14596.65309667 eV  <-- do not rely on this value for anything but (periodic) metals
  | Electronic free energy        :        -536.41724542 Ha      -14596.65591762 eV

  Derived energy quantities:
  | Kinetic energy                :         535.13904276 Ha       14561.87425338 eV
  | Electrostatic energy          :       -1006.02301372 Ha      -27375.27904228 eV
  | Energy correction for multipole
  | error in Hartree potential    :          -0.01010771 Ha          -0.27504485 eV
  | Sum of eigenvalues per atom                           :        -362.85772618 eV
  | Total energy (T->0) per atom                          :        -663.48423167 eV  <-- do not rely on this value for anything but (periodic) metals
  | Electronic free energy per atom                       :        -663.48435989 eV

  Self-consistency convergence accuracy:
  | Change of charge density      : 0.1164E+00
  | Change of sum of eigenvalues  : 0.3518E+02 eV
  | Change of total energy        : 0.1602E+00 eV

  End self-consistency iteration #     4       :  max(cpu_time)    wall_clock(cpu1)
  | Time for this iteration                    :        4.316 s           4.317 s
  | Charge density update                      :        1.368 s           1.368 s
  | Density mixing                             :        0.013 s           0.013 s
  | Hartree multipole update                   :        0.007 s           0.007 s
  | Hartree multipole summation                :        0.689 s           0.689 s
  | Integration                                :        2.113 s           2.112 s
  | Solution of K.-S. eqns.                    :        0.127 s           0.126 s
  | Total energy evaluation                    :        0.000 s           0.000 s
------------------------------------------------------------

------------------------------------------------------------
          Begin self-consistency iteration #    5

  Date     :  20150727, Time     :  114705.926
------------------------------------------------------------
  Evaluating new KS density.
  Integration grid: deviation in total charge (<rho> - N_e) =   4.263256E-14
  Pulay mixing of updated and previous charge densities.

  Evaluating partitioned Hartree potential by multipole expansion.
  | Analytical far-field extrapolation by fixed multipoles:
  | Hartree multipole sum: apparent total charge =  -0.606819E-05
  Summing up the Hartree potential.
  Time summed over all CPUs for potential: real work        5.432 s, elapsed        5.460 s
  | RMS charge density error from multipole expansion :   0.210204E-01

  Integrating Hamiltonian matrix: batch-based integration.
  Time summed over all CPUs for integration: real work       16.523 s, elapsed       16.875 s

  Updating Kohn-Sham eigenvalues, eigenvectors, occupation numbers, and Fermi level.
  Solving generalized eigenproblem
  Updating Kohn-Sham eigenvalues and eigenfunctions.
  Solving real generalised eigenvalue problem by standard LAPACK (fast)
  Determining occupation numbers for Kohn-Sham eigenstates.
  | Chemical potential (Fermi level) in eV                 : -.17064520E+01
  | Error in electron count due to remaining E_F inaccuracy: 0.32419223E-09
  | Maximum occupation number of highest empty state:  0.00E+00

  Highest occupied state (VBM) at     -1.70645197 eV
  | Occupation number:      1.00000000

  Lowest unoccupied state (CBM) at    -0.94596328 eV
  | Occupation number:      0.00000000

  Overall HOMO-LUMO gap:      0.76048870 eV.

  Total energy components:
  | Sum of eigenvalues            :        -293.09314986 Ha       -7975.47039510 eV
  | XC energy correction          :         -65.57016114 Ha       -1784.25486653 eV
  | XC potential correction       :          83.83075303 Ha        2281.15085366 eV
  | Free-atom electrostatic energy:        -249.96306303 Ha       -6801.84101879 eV
  | Hartree energy correction     :         -11.62093237 Ha        -316.22165895 eV
  | van der Waals energy corr.    :           0.00000000 Ha           0.00000000 eV
  | Entropy correction            :          -0.00010367 Ha          -0.00282095 eV
  | ---------------------------
  | Total energy                  :        -536.41655336 Ha      -14596.63708572 eV
  | Total energy, T -> 0          :        -536.41665703 Ha      -14596.63990667 eV  <-- do not rely on this value for anything but (periodic) metals
  | Electronic free energy        :        -536.41676070 Ha      -14596.64272761 eV

  Derived energy quantities:
  | Kinetic energy                :         535.14047821 Ha       14561.91331421 eV
  | Electrostatic energy          :       -1005.98687044 Ha      -27374.29553340 eV
  | Energy correction for multipole
  | error in Hartree potential    :          -0.01124181 Ha          -0.30590513 eV
  | Sum of eigenvalues per atom                           :        -362.52138160 eV
  | Total energy (T->0) per atom                          :        -663.48363212 eV  <-- do not rely on this value for anything but (periodic) metals
  | Electronic free energy per atom                       :        -663.48376035 eV

  Self-consistency convergence accuracy:
  | Change of charge density      : 0.4123E-01
  | Change of sum of eigenvalues  : 0.7400E+01 eV
  | Change of total energy        : 0.1319E-01 eV

  End self-consistency iteration #     5       :  max(cpu_time)    wall_clock(cpu1)
  | Time for this iteration                    :        4.305 s           4.306 s
  | Charge density update                      :        1.361 s           1.361 s
  | Density mixing                             :        0.014 s           0.015 s
  | Hartree multipole update                   :        0.007 s           0.007 s
  | Hartree multipole summation                :        0.684 s           0.683 s
  | Integration                                :        2.113 s           2.113 s
  | Solution of K.-S. eqns.                    :        0.127 s           0.127 s
  | Total energy evaluation                    :        0.000 s           0.000 s
------------------------------------------------------------

------------------------------------------------------------
          Begin self-consistency iteration #    6

  Date     :  20150727, Time     :  114710.232
------------------------------------------------------------
  Evaluating new KS density.
  Integration grid: deviation in total charge (<rho> - N_e) =   3.242064E-10
  Pulay mixing of updated and previous charge densities.

  Evaluating partitioned Hartree potential by multipole expansion.
  | Analytical far-field extrapolation by fixed multipoles:
  | Hartree multipole sum: apparent total charge =  -0.608054E-05
  Summing up the Hartree potential.
  Time summed over all CPUs for potential: real work        5.432 s, elapsed        5.460 s
  | RMS charge density error from multipole expansion :   0.212898E-01

  Integrating Hamiltonian matrix: batch-based integration.
  Time summed over all CPUs for integration: real work       16.530 s, elapsed       16.877 s

  Updating Kohn-Sham eigenvalues, eigenvectors, occupation numbers, and Fermi level.
  Solving generalized eigenproblem
  Updating Kohn-Sham eigenvalues and eigenfunctions.
  Solving real generalised eigenvalue problem by standard LAPACK (fast)
  Determining occupation numbers for Kohn-Sham eigenstates.
  | Chemical potential (Fermi level) in eV                 : -.17124192E+01
  | Error in electron count due to remaining E_F inaccuracy: -.19588242E-09
  | Maximum occupation number of highest empty state:  0.00E+00

  Highest occupied state (VBM) at     -6.71195074 eV
  | Occupation number:      2.00000000

  Lowest unoccupied state (CBM) at    -1.71241916 eV
  | Occupation number:      1.00000000

  Overall HOMO-LUMO gap:      4.99953158 eV.

  Total energy components:
  | Sum of eigenvalues            :        -293.10229456 Ha       -7975.71923512 eV
  | XC energy correction          :         -65.57178308 Ha       -1784.29900186 eV
  | XC potential correction       :          83.83245951 Ha        2281.19728922 eV
  | Free-atom electrostatic energy:        -249.96306303 Ha       -6801.84101879 eV
  | Hartree energy correction     :         -11.61189687 Ha        -315.97579039 eV
  | van der Waals energy corr.    :           0.00000000 Ha           0.00000000 eV
  | Entropy correction            :          -0.00010367 Ha          -0.00282095 eV
  | ---------------------------
  | Total energy                  :        -536.41657803 Ha      -14596.63775696 eV
  | Total energy, T -> 0          :        -536.41668170 Ha      -14596.64057790 eV  <-- do not rely on this value for anything but (periodic) metals
  | Electronic free energy        :        -536.41678537 Ha      -14596.64339885 eV

  Derived energy quantities:
  | Kinetic energy                :         535.10571486 Ha       14560.96735515 eV
  | Electrostatic energy          :       -1005.95050980 Ha      -27373.30611024 eV
  | Energy correction for multipole
  | error in Hartree potential    :          -0.01159855 Ha          -0.31561269 eV
  | Sum of eigenvalues per atom                           :        -362.53269251 eV
  | Total energy (T->0) per atom                          :        -663.48366263 eV  <-- do not rely on this value for anything but (periodic) metals
  | Electronic free energy per atom                       :        -663.48379086 eV

  Self-consistency convergence accuracy:
  | Change of charge density      : 0.9383E-02
  | Change of sum of eigenvalues  : -.2488E+00 eV
  | Change of total energy        : -.6712E-03 eV

  End self-consistency iteration #     6       :  max(cpu_time)    wall_clock(cpu1)
  | Time for this iteration                    :        4.308 s           4.308 s
  | Charge density update                      :        1.362 s           1.362 s
  | Density mixing                             :        0.016 s           0.016 s
  | Hartree multipole update                   :        0.007 s           0.007 s
  | Hartree multipole summation                :        0.684 s           0.683 s
  | Integration                                :        2.113 s           2.113 s
  | Solution of K.-S. eqns.                    :        0.126 s           0.127 s
  | Total energy evaluation                    :        0.000 s           0.000 s
------------------------------------------------------------

------------------------------------------------------------
          Begin self-consistency iteration #    7

  Date     :  20150727, Time     :  114714.541
------------------------------------------------------------
  Evaluating new KS density.
  Integration grid: deviation in total charge (<rho> - N_e) =  -1.958824E-10
  Pulay mixing of updated and previous charge densities.

  Evaluating partitioned Hartree potential by multipole expansion.
  | Analytical far-field extrapolation by fixed multipoles:
  | Hartree multipole sum: apparent total charge =  -0.604783E-05
  Summing up the Hartree potential.
  Time summed over all CPUs for potential: real work        5.432 s, elapsed        5.459 s
  | RMS charge density error from multipole expansion :   0.212896E-01

  Integrating Hamiltonian matrix: batch-based integration.
  Time summed over all CPUs for integration: real work       16.524 s, elapsed       16.870 s

  Updating Kohn-Sham eigenvalues, eigenvectors, occupation numbers, and Fermi level.
  Solving generalized eigenproblem
  Updating Kohn-Sham eigenvalues and eigenfunctions.
  Solving real generalised eigenvalue problem by standard LAPACK (fast)
  Determining occupation numbers for Kohn-Sham eigenstates.
  | Chemical potential (Fermi level) in eV                 : -.17369265E+01
  | Error in electron count due to remaining E_F inaccuracy: 0.00000000E+00
  | Maximum occupation number of highest empty state:  0.00E+00

  Highest occupied state (VBM) at     -1.73692651 eV
  | Occupation number:      1.00000000

  Lowest unoccupied state (CBM) at    -1.73692651 eV
  | Occupation number:      1.00000000

  Overall HOMO-LUMO gap:      0.00000000 eV.

  Total energy components:
  | Sum of eigenvalues            :        -293.20236832 Ha       -7978.44238065 eV
  | XC energy correction          :         -65.56153375 Ha       -1784.02010317 eV
  | XC potential correction       :          83.81878263 Ha        2280.82512241 eV
  | Free-atom electrostatic energy:        -249.96306303 Ha       -6801.84101879 eV
  | Hartree energy correction     :         -11.50835562 Ha        -313.15828980 eV
  | van der Waals energy corr.    :           0.00000000 Ha           0.00000000 eV
  | Entropy correction            :          -0.00010367 Ha          -0.00282095 eV
  | ---------------------------
  | Total energy                  :        -536.41653809 Ha      -14596.63667000 eV
  | Total energy, T -> 0          :        -536.41664175 Ha      -14596.63949095 eV  <-- do not rely on this value for anything but (periodic) metals
  | Electronic free energy        :        -536.41674542 Ha      -14596.64231189 eV

  Derived energy quantities:
  | Kinetic energy                :         535.14041267 Ha       14561.91153067 eV
  | Electrostatic energy          :       -1005.99541701 Ha      -27374.52809751 eV
  | Energy correction for multipole
  | error in Hartree potential    :          -0.01192223 Ha          -0.32442034 eV
  | Sum of eigenvalues per atom                           :        -362.65647185 eV
  | Total energy (T->0) per atom                          :        -663.48361322 eV  <-- do not rely on this value for anything but (periodic) metals
  | Electronic free energy per atom                       :        -663.48374145 eV

  Self-consistency convergence accuracy:
  | Change of charge density      : 0.7704E-02
  | Change of sum of eigenvalues  : -.2723E+01 eV
  | Change of total energy        : 0.1087E-02 eV

  End self-consistency iteration #     7       :  max(cpu_time)    wall_clock(cpu1)
  | Time for this iteration                    :        4.310 s           4.309 s
  | Charge density update                      :        1.361 s           1.361 s
  | Density mixing                             :        0.019 s           0.018 s
  | Hartree multipole update                   :        0.007 s           0.007 s
  | Hartree multipole summation                :        0.683 s           0.683 s
  | Integration                                :        2.113 s           2.112 s
  | Solution of K.-S. eqns.                    :        0.127 s           0.127 s
  | Total energy evaluation                    :        0.001 s           0.000 s
------------------------------------------------------------

------------------------------------------------------------
          Begin self-consistency iteration #    8

  Date     :  20150727, Time     :  114718.850
------------------------------------------------------------
  Evaluating new KS density.
  Integration grid: deviation in total charge (<rho> - N_e) =   5.684342E-14
  Pulay mixing of updated and previous charge densities.

  Evaluating partitioned Hartree potential by multipole expansion.
  | Analytical far-field extrapolation by fixed multipoles:
  | Hartree multipole sum: apparent total charge =  -0.603316E-05
  Summing up the Hartree potential.
  Time summed over all CPUs for potential: real work        5.432 s, elapsed        5.461 s
  | RMS charge density error from multipole expansion :   0.213407E-01

  Integrating Hamiltonian matrix: batch-based integration.
  Time summed over all CPUs for integration: real work       16.526 s, elapsed       16.868 s

  Updating Kohn-Sham eigenvalues, eigenvectors, occupation numbers, and Fermi level.
  Solving generalized eigenproblem
  Updating Kohn-Sham eigenvalues and eigenfunctions.
  Solving real generalised eigenvalue problem by standard LAPACK (fast)
  Determining occupation numbers for Kohn-Sham eigenstates.
  | Chemical potential (Fermi level) in eV                 : -.17399550E+01
  | Error in electron count due to remaining E_F inaccuracy: -.21216806E-09
  | Maximum occupation number of highest empty state:  0.00E+00

  Highest occupied state (VBM) at     -6.79157544 eV
[...]
  | Total energy corrected        :         -0.145968060600490E+05 eV  <-- do not rely on this value for anything but (periodic) metals
  | Electronic free energy        :         -0.145968088809969E+05 eV
  Total atomic forces (unitary forces cleaned) [eV/Ang]:
  |   1         -0.100908230737937E+01          0.125496381609449E+01         -0.126128163504385E+01
  |   2          0.404763496718034E+00         -0.974140799487828E+00          0.310170951417311E+00
  |   3          0.331412823310338E+00         -0.140783893948250E+00         -0.419507961624013E-01
  |   4         -0.320273504126780E-01         -0.157268702490051E+00          0.676483875885548E+00
  |   5         -0.832685638087527E+00         -0.236464599548164E+01         -0.140333109135450E+01
  |   6          0.184992503723638E+00          0.174990661751256E+01          0.141191471129254E+01
  |   7          0.516275659013912E+00          0.596472865726608E+00          0.115888444254562E+00
  |   8          0.311855407926701E+00         -0.770812618952353E+00          0.252557884686023E+01
  |   9          0.703894035219851E-01          0.256370920449447E+00          0.148179166045088E+00
  |  10         -0.320442890380782E+00          0.356231386964292E+00         -0.260423657628218E+01
  |  11          0.156298886297959E+01         -0.958938448848016E-01          0.914844453160676E+00
  |  12         -0.108503740008214E+00         -0.281365283237612E+00         -0.602690655646250E+00
  |  13         -0.115834705724876E+01          0.620663278414191E+00         -0.260859888986739E+00
  |  14         -0.355467101721456E+00          0.366456199043034E+00          0.202496563562194E+01
  |  15         -0.256200378214429E+00          0.234637649814735E+00         -0.204173875647413E+01
  |  16          0.885233697831751E+00         -0.914228610481061E+00          0.208993039635703E+00
  |  17          0.305884143457294E+00          0.112918225148750E+01         -0.575237180702345E+00
  |  18          0.323301147280311E+00         -0.319888370966419E+00          0.184819926110623E+00
  |  19         -0.501413599914206E+00         -0.770956129173015E+00          0.334674272394931E+00
  |  20          0.609279796794740E+00          0.213952102740064E+00         -0.134642207840121E+01
  |  21         -0.408683994497458E+00          0.618811849874289E+00          0.487109463515421E+00
  |  22         -0.523522884693418E+00         -0.607664689018181E+00          0.794125872859035E+00
 
  ------------------------------------ 
  Start decomposition of the XC Energy 
  ------------------------------------ 
  Hartree-Fock part   :          0.000000000 Ha              0.000000000 eV
  ------------------------------------ 
  X Energy            :        -63.232955005 Ha          -1720.656251715 eV
  C Energy GGA        :         -2.327194311 Ha            -63.326179205 eV
  Total XC Energy     :        -65.560149316 Ha          -1783.982430920 eV
  LDA X and C from self-consistent density 
  X Energy LDA        :        -57.030530369 Ha          -1551.879690105 eV
  C Energy LDA        :         -4.664775066 Ha           -126.934987941 eV
  ------------------------------------ 
  End decomposition of the XC Energy 
  ------------------------------------ 
  Performing Hirshfeld analysis of fragment charges and moments.
  ----------------------------------------------------------------------
  | Atom     1: O
  |   Hirshfeld charge        :     -0.15513305
  |   Free atom volume        :     23.95238533
  |   Hirshfeld volume        :     20.94490229
  |   Hirshfeld dipole vector :      0.00444142       0.02736003       0.02430971
  |   Hirshfeld dipole moment :      0.03686814
  |   Hirshfeld second moments:      0.08748590      -0.00761912      -0.00611824
  |                                 -0.00761912       0.05615561      -0.02273338
  |                                 -0.00611824      -0.02273338       0.06921152
  ----------------------------------------------------------------------
  | Atom     2: H
  |   Hirshfeld charge        :      0.11981870
  |   Free atom volume        :     10.44207651
  |   Hirshfeld volume        :      8.50531655
  |   Hirshfeld dipole vector :     -0.00823321       0.01356218      -0.00328607
  |   Hirshfeld dipole moment :      0.01620237
  |   Hirshfeld second moments:      0.06694611       0.02352870      -0.00616942
  |                                  0.02352870       0.04061461       0.01612102
  |                                 -0.00616942       0.01612102       0.08532367
  ----------------------------------------------------------------------
  | Atom     3: H
  |   Hirshfeld charge        :      0.10495090
  |   Free atom volume        :     10.44207651
  |   Hirshfeld volume        :      8.86568928
  |   Hirshfeld dipole vector :      0.01658269       0.00286087       0.00697708
  |   Hirshfeld dipole moment :      0.01821674
  |   Hirshfeld second moments:      0.02555328      -0.02133708      -0.00106768
  |                                 -0.02133708       0.07042613       0.00261423
  |                                 -0.00106768       0.00261423       0.07470402
  ----------------------------------------------------------------------
  | Atom     4: H
  |   Hirshfeld charge        :      0.11240588
  |   Free atom volume        :     10.44207651
  |   Hirshfeld volume        :      8.30583778
  |   Hirshfeld dipole vector :     -0.01793245       0.00022088       0.01949051
  |   Hirshfeld dipole moment :      0.02648587
  |   Hirshfeld second moments:      0.08881876       0.00455785       0.01131368
  |                                  0.00455785       0.08724945       0.00630215
  |                                  0.01131368       0.00630215       0.02637439
  ----------------------------------------------------------------------
  | Atom     5: O
  |   Hirshfeld charge        :     -0.23034853
  |   Free atom volume        :     23.95238533
  |   Hirshfeld volume        :     21.25807080
  |   Hirshfeld dipole vector :     -0.02421058       0.02496537      -0.00367054
  |   Hirshfeld dipole moment :      0.03496991
  |   Hirshfeld second moments:      0.04726493       0.04288531      -0.01302755
  |                                  0.04288531       0.04309159       0.00823507
  |                                 -0.01302755       0.00823507       0.06295816
  ----------------------------------------------------------------------
  | Atom     6: H
  |   Hirshfeld charge        :      0.09521069
  |   Free atom volume        :     10.44207651
  |   Hirshfeld volume        :      8.64307394
  |   Hirshfeld dipole vector :      0.00337892       0.02613572       0.02560823
  |   Hirshfeld dipole moment :      0.03674608
  |   Hirshfeld second moments:      0.06626304      -0.00307950      -0.01027575
  |                                 -0.00307950       0.03520029      -0.02251222
  |                                 -0.01027575      -0.02251222       0.07385908
  ----------------------------------------------------------------------
  | Atom     7: H
  |   Hirshfeld charge        :      0.15071558
  |   Free atom volume        :     10.44207651
  |   Hirshfeld volume        :      7.75002542
  |   Hirshfeld dipole vector :     -0.08637225      -0.05124191       0.02319615
  |   Hirshfeld dipole moment :      0.10307260
  |   Hirshfeld second moments:      0.07904763       0.00768892       0.00008350
  |                                  0.00768892       0.09510415       0.00890518
  |                                  0.00008350       0.00890518       0.10252817
  ----------------------------------------------------------------------
  | Atom     8: O
  |   Hirshfeld charge        :     -0.21009908
  |   Free atom volume        :     23.95238533
  |   Hirshfeld volume        :     21.40704458
  |   Hirshfeld dipole vector :      0.03116295      -0.00117491      -0.01369457
  |   Hirshfeld dipole moment :      0.03405952
  |   Hirshfeld second moments:      0.01399712       0.00009924       0.02998148
  |                                  0.00009924       0.06639912       0.00429529
  |                                  0.02998148       0.00429529       0.08099487
  ----------------------------------------------------------------------
  | Atom     9: H
  |   Hirshfeld charge        :      0.10223144
  |   Free atom volume        :     10.44207651
  |   Hirshfeld volume        :      9.37830361
  |   Hirshfeld dipole vector :      0.01524980       0.02582182       0.01771607
  |   Hirshfeld dipole moment :      0.03483076
  |   Hirshfeld second moments:      0.03657874      -0.01954707       0.00569585
  |                                 -0.01954707       0.04170399      -0.01351618
  |                                  0.00569585      -0.01351618       0.06800973
  ----------------------------------------------------------------------
  | Atom    10: H
  |   Hirshfeld charge        :      0.13303940
  |   Free atom volume        :     10.44207651
  |   Hirshfeld volume        :      9.40196618
  |   Hirshfeld dipole vector :     -0.01482064       0.00265559      -0.08277410
  |   Hirshfeld dipole moment :      0.08413237
  |   Hirshfeld second moments:      0.05494660      -0.00199912       0.01010478
  |                                 -0.00199912       0.07714322       0.00836514
  |                                  0.01010478       0.00836514       0.05797205
  ----------------------------------------------------------------------
  | Atom    11: O
  |   Hirshfeld charge        :     -0.22911107
  |   Free atom volume        :     23.95238533
  |   Hirshfeld volume        :     23.04826881
  |   Hirshfeld dipole vector :     -0.01774746      -0.03624285       0.03588934
  |   Hirshfeld dipole moment :      0.05400520
  |   Hirshfeld second moments:      0.04413546      -0.02085561       0.00702834
  |                                 -0.02085561       0.01158562       0.04447275
  |                                  0.00702834       0.04447275      -0.01442127
  ----------------------------------------------------------------------
  | Atom    12: H
  |   Hirshfeld charge        :      0.07627341
  |   Free atom volume        :     10.44207651
  |   Hirshfeld volume        :     11.89121169
  |   Hirshfeld dipole vector :     -0.02073957       0.00460423       0.04070208
  |   Hirshfeld dipole moment :      0.04591283
  |   Hirshfeld second moments:      0.03446828      -0.02568931      -0.00886771
  |                                 -0.02568931      -0.00784479       0.00089786
  |                                 -0.00886771       0.00089786      -0.01992206
  ----------------------------------------------------------------------
  | Atom    13: H
  |   Hirshfeld charge        :      0.10623410
  |   Free atom volume        :     10.44207651
  |   Hirshfeld volume        :     11.38343592
  |   Hirshfeld dipole vector :      0.04291307      -0.04870844       0.00317617
  |   Hirshfeld dipole moment :      0.06499332
  |   Hirshfeld second moments:      0.02605243       0.00340867      -0.00529739
  |                                  0.00340867       0.02241326       0.02092123
  |                                 -0.00529739       0.02092123       0.01800392
  ----------------------------------------------------------------------
  | Atom    14: O
  |   Hirshfeld charge        :     -0.28616390
  |   Free atom volume        :     23.95238533
  |   Hirshfeld volume        :     22.78956898
  |   Hirshfeld dipole vector :     -0.05496854      -0.01084370       0.01952458
  |   Hirshfeld dipole moment :      0.05933242
  |   Hirshfeld second moments:     -0.03971291      -0.02658098       0.03370374
  |                                 -0.02658098       0.01130502       0.00046462
  |                                  0.03370374       0.00046462       0.03911339
  ----------------------------------------------------------------------
  | Atom    15: H
  |   Hirshfeld charge        :      0.11430648
  |   Free atom volume        :     10.44207651
  |   Hirshfeld volume        :      9.00161692
  |   Hirshfeld dipole vector :      0.00593456      -0.01372182       0.09443012
  |   Hirshfeld dipole moment :      0.09560625
  |   Hirshfeld second moments:      0.05661242      -0.01351536       0.01389423
  |                                 -0.01351536       0.07491210       0.00380787
  |                                  0.01389423       0.00380787       0.05942572
  ----------------------------------------------------------------------
  | Atom    16: H
  |   Hirshfeld charge        :      0.07749292
  |   Free atom volume        :     10.44207651
  |   Hirshfeld volume        :      9.08449776
  |   Hirshfeld dipole vector :     -0.03122640       0.02051595       0.00138912
  |   Hirshfeld dipole moment :      0.03738879
  |   Hirshfeld second moments:      0.02071289       0.01354351      -0.00888428
  |                                  0.01354351       0.04140061       0.01082210
  |                                 -0.00888428       0.01082210       0.07800151
  ----------------------------------------------------------------------
  | Atom    17: O
  |   Hirshfeld charge        :     -0.21801715
  |   Free atom volume        :     23.95238533
  |   Hirshfeld volume        :     22.37147375
  |   Hirshfeld dipole vector :     -0.00711146      -0.01535922       0.00933323
  |   Hirshfeld dipole moment :      0.01932842
  |   Hirshfeld second moments:      0.02498271       0.00311634       0.00669502
  |                                  0.00311634       0.04922166      -0.02242189
  |                                  0.00669502      -0.02242189       0.02169766
  ----------------------------------------------------------------------
  | Atom    18: H
  |   Hirshfeld charge        :      0.07311858
  |   Free atom volume        :     10.44207651
  |   Hirshfeld volume        :     11.65219451
  |   Hirshfeld dipole vector :      0.00309752      -0.03841802       0.02404144
  |   Hirshfeld dipole moment :      0.04542610
  |   Hirshfeld second moments:     -0.02560925      -0.00423947      -0.00737310
  |                                 -0.00423947       0.03936939      -0.00632059
  |                                 -0.00737310      -0.00632059       0.00631671
  ----------------------------------------------------------------------
  | Atom    19: H
  |   Hirshfeld charge        :      0.07579746
  |   Free atom volume        :     10.44207651
  |   Hirshfeld volume        :     13.43435757
  |   Hirshfeld dipole vector :     -0.00458275       0.02856141      -0.01189523
  |   Hirshfeld dipole moment :      0.03127702
  |   Hirshfeld second moments:     -0.02115122      -0.00580938       0.01000656
  |                                 -0.00580938      -0.01694807      -0.00261846
  |                                  0.01000656      -0.00261846      -0.01887760
  ----------------------------------------------------------------------
  | Atom    20: O
  |   Hirshfeld charge        :     -0.23839764
  |   Free atom volume        :     23.95238533
  |   Hirshfeld volume        :     21.82017076
  |   Hirshfeld dipole vector :      0.02902523       0.01946124       0.01252260
  |   Hirshfeld dipole moment :      0.03712168
  |   Hirshfeld second moments:      0.02010577      -0.03367723      -0.03392523
  |                                 -0.03367723       0.03728241      -0.00392573
  |                                 -0.03392523      -0.00392573       0.05051020
  ----------------------------------------------------------------------
  | Atom    21: H
  |   Hirshfeld charge        :      0.12700322
  |   Free atom volume        :     10.44207651
  |   Hirshfeld volume        :      8.66036796
  |   Hirshfeld dipole vector :     -0.04642174       0.06551791       0.05256186
  |   Hirshfeld dipole moment :      0.09597044
  |   Hirshfeld second moments:      0.07095561      -0.00672282      -0.00820867
  |                                 -0.00672282       0.07026689      -0.00933286
  |                                 -0.00820867      -0.00933286       0.07941470
  ----------------------------------------------------------------------
  | Atom    22: H
  |   Hirshfeld charge        :      0.09863183
  |   Free atom volume        :     10.44207651
  |   Hirshfeld volume        :      9.31482275
  |   Hirshfeld dipole vector :      0.01726053       0.02132088      -0.03055746
  |   Hirshfeld dipole moment :      0.04106414
  |   Hirshfeld second moments:      0.04367768      -0.02183114       0.00731347
  |                                 -0.02183114       0.06058289       0.01332127
  |                                  0.00731347       0.01332127       0.04197934
  ----------------------------------------------------------------------


------------------------------------------------------------------------------
  Final output of selected total energy values:

  The following output summarizes some interesting total energy values
  at the end of a run (AFTER all relaxation, molecular dynamics, etc.).

  | Total energy of the DFT / Hartree-Fock s.c.f. calculation      :         -14596.803239101 eV
  | Final zero-broadening corrected energy (caution - metals only) :         -14596.806060049 eV
  | For reference only, the value of 1 Hartree used in FHI-aims is :             27.211384500 eV

  Before relying on these values, please be sure to understand exactly which
  total energy value is referred to by a given number. Different objects may
  all carry the same name 'total energy'. Definitions:

  Total energy of the DFT / Hartree-Fock s.c.f. calculation:
  | Note that this energy does not include ANY quantities calculated after the
  | s.c.f. cycle, in particular not ANY RPA, MP2, etc. many-body perturbation terms.

  Final zero-broadening corrected energy:
  | For metallic systems only, a broadening of the occupation numbers at the Fermi
  | level can be extrapolated back to zero broadening by an electron-gas inspired
  | formula. For all systems that are not real metals, this value can be
  | meaningless and should be avoided.

------------------------------------------------------------------------------

------------------------------------------------------------
          Leaving FHI-aims.
          Date     :  20150727, Time     :  114810.672

          Computational steps:
          | Number of self-consistency cycles          :           17

          Detailed time accounting                     :  max(cpu_time)    wall_clock(cpu1)
          | Total time                                 :       86.931 s          86.962 s
          | Preparation time                           :        0.173 s           0.532 s
          | Grid partitioning                          :        0.220 s           0.220 s
          | Preloading free-atom quantities on grid    :        0.014 s           0.014 s
          | Free-atom superposition energy             :        0.125 s           0.125 s
          | Total time for integrations                :       39.183 s          39.182 s
          | Total time for solution of K.-S. equations :        2.639 s           2.637 s
          | Total time for density & force components  :       29.296 s          29.295 s
          | Total time for mixing                      :        0.333 s           0.334 s
          | Total time for Hartree multipole update    :        0.119 s           0.119 s
          | Total time for Hartree multipole sum       :       13.916 s          13.913 s
          | Total time for total energy evaluation     :        0.005 s           0.006 s
          | Total time for scaled ZORA corrections     :        0.000 s           0.000 s
          | Total time for TS (2009) vdW correction    :        0.106 s           0.106 s

          Have a nice day.
------------------------------------------------------------
