  MPI-parallelism will be employed.
------------------------------------------------------------
          Invoking FHI-aims ...
          Version 081213
          Compiled on 2013/08/29 at 17:41:06 on host generoso.

          When using FHI-aims, please cite the following reference:

          Volker Blum, Ralf Gehrke, Felix Hanke, Paula Havu,
          Ville Havu, Xinguo Ren, Karsten Reuter, and Matthias Scheffler,
          'Ab Initio Molecular Simulations with Numeric Atom-Centered Orbitals: FHI-aims',
          Computer Physics Communications 180, 2175-2196 (2009)

          For any questions about FHI-aims, please visit the aimsclub website
          with its forums and wiki. Contributions to both the forums and the
          wiki are warmly encouraged - they are for you, and everyone is welcome there.

------------------------------------------------------------

  Date     :  20150727, Time     :  122110.796
  Time zero on CPU 1             :   0.439920000000000E-01  s.
  Internal wall clock time zero  :           207231670.796  s.

  Using        8 parallel tasks.
  Task        0 on host gen59 reporting.
  Task        1 on host gen59 reporting.
  Task        2 on host gen59 reporting.
  Task        3 on host gen59 reporting.
  Task        4 on host gen59 reporting.
  Task        5 on host gen59 reporting.
  Task        6 on host gen59 reporting.
  Task        7 on host gen59 reporting.

  Performing system and environment tests:
  | Environment variable OMP_NUM_THREADS correctly set to 1.
  | Checking for scalapack...
  | No scalapack compiled in.

  Obtaining array dimensions for all initial allocations:
  
  -----------------------------------------------------------------------
  Parsing control.in (first pass over file, find array dimensions only).
  The contents of control.in will be repeated verbatim below
  unless switched off by setting 'verbatim_writeout .false.' .
  in the first line of control.in .
  -----------------------------------------------------------------------
  
  #########################################################################################
  #
  #  Volker Blum, FHI 2008 : Test run input file control.in
  #
  #########################################################################################
  #
  #  Physical model
  #
    xc                 rpbe
    spin               none
    relativistic       atomic_zora scalar
    charge             0.
   vdw_correction_hirshfeld
  #
  #  SCF convergence
  #
    occupation_type    gaussian 0.01
    mixer              pulay
      n_max_pulay        10
      charge_mix_param   0.1
    sc_accuracy_rho    5E-5
    sc_accuracy_eev    5E-3
    sc_accuracy_etot   5E-6
    sc_iter_limit      3000
  #
  #  Eigenvalue solver
  #
    KS_method          lapack
      empty_states       8
      basis_threshold    0.e-5
  #
  #  Efficiency
  #
  #   all previous settings are now default, except stratmann still
  #   undecided. Continue to handle stratmann with care, if at all.
  #
  #  partition_type stratmann
    partition_type rho_r2
  #  hartree_partition_type stratmann
  #
  #  Oprions for large clusters (100's of atoms: memory saving / better scaling)
  #
  # for periodic systems:
  #
    density_update_method orbital
    packed_matrix_format none
  #  k_grid 6 6 6
  #  output k_eigenvalue 1
  #  distributed_spline_storage .true.
  #
  #  Relaxation
  #
  #  relax_geometry   bfgs 5.e-3
    sc_accuracy_forces 5.E-4
    final_forces_cleaned .true.
  #
  #  Output options
  #
  #  output mulliken
    output Hirshfeld
  #  output dipole
  
  #harmonic_length_scale 0.001
  
  ################################################################################
  #
  #  FHI-aims code project
  #  VB, Fritz-Haber Institut, 2007
  #
  #  Suggested "safe" defaults for H atom (to be pasted into control.in file)
  #  Basis constructed for a non-relativistic H2 molecule using the
  #  PW-LDA functional.
  #
  ################################################################################
    species        H
  #     global species definitions
      nucleus             1
      cut_pot             4.0  2.0  1.0
      cut_free_atom       finite 8.0
      logarithmic         0.00010000 100.00  1.0123
      basis_dep_cutoff    1d-4  # 1d-4 is safe default - please check 5d-4 if you wish!
      radial_base         24 7.0
      radial_multiplier   2
      angular_grids       specified
        division   0.2783  110
        division   0.3822  194
        division   0.5626  302
  #      division   0.5922  434
  #      division   0.6227  590
  #      division   0.7206  770
        outer_grid  302
      l_hartree           4
  ################################################################################
  #
  #  Definition of "minimal" basis
  #
  ################################################################################
  #     valence basis states
      valence      1  s   1.
  #     ion occupancy
      ion_occ      1  s   0.5
  ################################################################################
  #
  #  Suggested additional basis functions. For production calculations,
  #  uncomment them one after another (the most important basis functions are
  #  listed first).
  #
  ################################################################################
  #  "First tier" - improvements: -1014.90 meV to -62.69 meV
       hydro 2 s 2.1
       hydro 2 p 3.5
  #  "Second tier" - improvements: -12.89 meV to -1.83 meV
       hydro 1 s 0.85
       hydro 2 p 3.7
       hydro 2 s 1.2
       hydro 3 d 7
  #  "Third tier" - improvements: -0.25 meV to -0.12 meV
  #     hydro 4 f 11.2
  #     hydro 3 p 4.8
  #     hydro 4 d 9
  #     hydro 3 s 3.2
  
  ################################################################################
  #
  #  FHI-aims code project
  #  VB, Fritz-Haber Institut, 2007
  #
  #  Suggested "safe" defaults for O atom (to be pasted into control.in file)
  #  All values have been tested for a non-relativistic, non-spinpolarized O2
  #  molecule using the PW-LDA functional. Validity for PBE is expected.
  #
  #  Constructed for dimers: 1.0 A, 1.208 A, 1.5 A, 2.0 A, 3.0 A
  #
  ################################################################################
    species        O
  #     global species definitions
      nucleus             8
      mass                15.9994
      l_hartree           4
      cut_pot             4.0  2.0  1.0
      cut_free_atom       finite 8.0
      basis_dep_cutoff    1d-4  # 1d-4 is safe default - please check 5d-4 if you wish!
      logarithmic         0.00010000 100.00  1.0123
      radial_base         36 7.0
      radial_multiplier   2
       angular_grids specified
        division   0.4087  110
        division   0.5181  194
        division   0.6184  302
  #      division   0.7315  434
  #      division   0.7934  590
  #      division   0.9656  770
  #      division   1.4041  974
  #      outer_grid 974
        outer_grid 302
  ################################################################################
  #
  #  Definition of "minimal" basis
  #
  ################################################################################
  #     valence basis states
      valence      2  s   2.
      valence      2  p   4.
  #     ion occupancy
      ion_occ      2  s   1.
      ion_occ      2  p   3.
  ################################################################################
  #
  #  Suggested additional basis functions. For production calculations,
  #  uncomment them one after another (the most important basis functions are
  #  listed first).
  #
  ################################################################################
  #  "First tier" - improvements: -699.05 meV to -159.38 meV
       hydro 2 p 1.8
       hydro 3 d 7.6
       hydro 3 s 6.4
  #  "Second tier" - improvements: -49.91 meV to -5.39 meV
       hydro 4 f 11.6
       hydro 3 p 6.2
       hydro 3 d 5.6
       hydro 5 g 17.6
       hydro 1 s 0.75
  #  "Third tier" - improvements: -2.83 meV to -0.50 meV
  #     ionic 2 p auto
  #     hydro 4 f 10.8
  #     hydro 4 d 4.7
  #     hydro 2 s 6.8
  #  "Fourth tier" - improvements: -0.40 meV to -0.12 meV
  #     hydro 3 p 5
  #     hydro 3 s 3.3
  #     hydro 5 g 15.6
  #     hydro 4 f 17.6
  #     hydro 4 d 14
  # Further basis functions - -0.08 meV and below
  #     hydro 3 s 2.1
  #     hydro 4 d 11.6
  #     hydro 3 p 16
  #     hydro 2 s 17.2
  
  
  -----------------------------------------------------------------------
  Completed first pass over input file control.in .
  -----------------------------------------------------------------------
  
  
  -----------------------------------------------------------------------
  Parsing geometry.in (first pass over file, find array dimensions only).
  The contents of geometry.in will be repeated verbatim below
  unless switched off by setting 'verbatim_writeout .false.' .
  in the first line of geometry.in .
  -----------------------------------------------------------------------
  
  atom      -4.053030000      0.065001000     -1.525160000  O
  atom      -4.566710000      0.974813000     -1.912820000  H
  atom      -3.067820000      0.330172000     -1.477310000  H
  atom      -4.370360000     -0.049164000     -0.572274000  H
  atom      -4.581760000     -0.256435000      0.939478000  O
  atom      -4.349860000      0.471090000      1.504340000  H
  atom      -5.393870000     -0.726611000      1.228070000  H
  atom      -1.645860000      0.870179000     -1.502250000  O
  atom      -1.568890000      1.501730000     -0.721051000  H
  atom      -0.824432000      0.282220000     -1.377720000  H
  atom      -1.975360000      2.858040000      0.453140000  O
  atom      -1.223550000      3.375850000      0.786238000  H
  atom      -2.537520000      2.567960000      1.156120000  H
  atom      -5.628340000      3.730740000      1.385610000  O
  atom      -6.090650000      4.418470000      1.860350000  H
  atom      -5.158540000      4.200260000      0.615875000  H
  
  -----------------------------------------------------------------------
  Completed first pass over input file geometry.in .
  -----------------------------------------------------------------------
  
 
  Basic array size parameters: 
  | Number of species                 :        2
  | Number of atoms                   :       16
  | Max. basis fn. angular momentum   :        4
  | Max. atomic/ionic basis occupied n:        2
  | Max. number of basis fn. types    :        2
  | Max. radial fns per species/type  :        8
  | Max. logarithmic grid size        :     1301
  | Max. radial integration grid size :       73
  | Max. angular integration grid size:      302
  | Max. angular grid division number :        8
  | Radial grid for Hartree potential :     1301
  | Number of spin channels           :        1

------------------------------------------------------------
          Reading file control.in.
------------------------------------------------------------
  XC: Using RPBE gradient-corrected functionals.
  Spin treatment: No spin polarisation.
  Scalar relativistic treatment of kinetic energy: on-site free-atom approximation to ZORA.
  Charge =   0.000000E+00: Neutral system requested explicitly.
  Using non-empirical van der Waals correction (Hirshfeld partitioning):
  Occupation type: Gaussian broadening, width =   0.100000E-01 eV.
  Using pulay charge density mixing.
  Pulay mixing - number of memorized iterations:   10
  Charge density mixing - mixing parameter:     0.1000
  Convergence accuracy of self-consistent charge density: 0.5000E-04
  Convergence accuracy of sum of eigenvalues: 0.5000E-02
  Convergence accuracy of total energy: 0.5000E-05
  Maximum number of s.-c. iterations  :  3000
  Kohn-Sham eigenvalues and eigenfunctions calculated by lapack diagonalisation (D&C).
  Number of empty states per atom:        8
  Threshold for basis singularities: 0.0000E+00
  Partition function in integrals calculations: rho / r^2
 Using packed matrix format           0
  Convergence accuracy of forces: 0.5000E-03
  Cleaning forces before final output.
  Hirshfeld charge analysis will be performed.
 
  Reading configuration options for species H                   .
  | Found nuclear charge :   1.0000
  | Found cutoff potl. onset [A], width [A], scale factor :    4.00000    2.00000    1.00000
  | Found cutoff specification for free atom: Cutoff potential begins at    8.00000 A.
  | Found logarithmic grid data [bohr] : 0.1000E-03 0.1000E+03 0.1012E+01
  | Threshold for basis-dependent cutoff potential is   0.100000E-03
  | Found data for basic radial integration grid :    24 points, outermost radius =    7.000 A
  | Found multiplier for basic radial grid :   2
  | Found angular grid specification: user-specified.
  | Specified grid contains     4 separate shells.
  | Check grid settings after all constraints further below.
  | Found l_max for Hartree potential  :   4
  | Found free-atom valence shell :  1 s   1.000
  | No ionic wave fns used. Skipping ion_occ.
  | Found hydrogenic basis function :  2 s   2.100
  | Found hydrogenic basis function :  2 p   3.500
  | Found hydrogenic basis function :  1 s   0.850
  | Found hydrogenic basis function :  2 p   3.700
  | Found hydrogenic basis function :  2 s   1.200
  | Found hydrogenic basis function :  3 d   7.000
  Species H                   : Missing cutoff potential type.
  Defaulting to exp(1/x)/(1-x)^2 type cutoff potential.
  Species H : On-site basis accuracy parameter (for Gram-Schmidt orthonormalisation) not specified.
  Using default value basis_acc =  0.1000000E-03.
  Species H                   : Using default innermost maximum threshold i_radial=  2 for radial functions.
  Species H                   : Basic radial grid will be enhanced according to radial_multiplier =   2, to contain    49 grid points.
 
  Reading configuration options for species O                   .
  | Found nuclear charge :   8.0000
  | Found atomic mass :    15.9994000000000      amu
  | Found l_max for Hartree potential  :   4
  | Found cutoff potl. onset [A], width [A], scale factor :    4.00000    2.00000    1.00000
  | Found cutoff specification for free atom: Cutoff potential begins at    8.00000 A.
  | Threshold for basis-dependent cutoff potential is   0.100000E-03
  | Found logarithmic grid data [bohr] : 0.1000E-03 0.1000E+03 0.1012E+01
  | Found data for basic radial integration grid :    36 points, outermost radius =    7.000 A
  | Found multiplier for basic radial grid :   2
  | Found angular grid specification: user-specified.
  | Specified grid contains     4 separate shells.
  | Check grid settings after all constraints further below.
  | Found free-atom valence shell :  2 s   2.000
  | Found free-atom valence shell :  2 p   4.000
  | No ionic wave fns used. Skipping ion_occ.
  | No ionic wave fns used. Skipping ion_occ.
  | Found hydrogenic basis function :  2 p   1.800
  | Found hydrogenic basis function :  3 d   7.600
  | Found hydrogenic basis function :  3 s   6.400
  | Found hydrogenic basis function :  4 f  11.600
  | Found hydrogenic basis function :  3 p   6.200
  | Found hydrogenic basis function :  3 d   5.600
  | Found hydrogenic basis function :  5 g  17.600
  | Found hydrogenic basis function :  1 s   0.750
  Species O                   : Missing cutoff potential type.
  Defaulting to exp(1/x)/(1-x)^2 type cutoff potential.
  Species O : On-site basis accuracy parameter (for Gram-Schmidt orthonormalisation) not specified.
  Using default value basis_acc =  0.1000000E-03.
  Species O                   : Using default innermost maximum threshold i_radial=  2 for radial functions.
  Species O                   : Basic radial grid will be enhanced according to radial_multiplier =   2, to contain    73 grid points.
 
  Finished reading input file 'control.in'. Consistency checks are next.
 
  Target number of points in a grid batch is not set. Defaulting to  100
  Method for grid partitioning is not set. Defaulting to parallel hash+maxmin partitioning.
  Batch size limit is not set. Defaulting to    200
  By default, will store active basis functions for each batch.
  If in need of memory, prune_basis_once .false. can be used to disable this option.
  communication_type for Hartree potential was not specified.
  Defaulting to calc_hartree .
  Pulay mixer: Number of initial linear mixing iterations not set.
  Defaulting to    0 iterations.
  Work space size for distributed Hartree potential not set.
  Defaulting to   0.200000E+03 MB.
  Algorithm-dependent basis array size parameters:
  | n_max_pulay                         :       10
  Geometry relaxation not requested: no relaxation will be performed.
  Handling of forces: Unphysical translation and rotation will be removed from forces.
  No accuracy limit for integral partition fn. given. Defaulting to 0.1000E-14.
  No threshold value for u(r) in integrations given. Defaulting to 0.1000E-05.
  No accuracy for occupation numbers given. Defaulting to 0.1000E-07.
  No threshold value for occupation numbers given. Defaulting to 0.0000E+00.
  No accuracy for fermi level given. Defaulting to 0.1000E-19.
  Maximum # of iterations to find E_F not set. Defaulting to  200.
  Will not use alltoall communication since running on < 1024 CPUs.
  Partitioning for Hartree potential was not defined. Using partition_type for integrals.
  | Reporting present value of keyword multip_moments_threshold  :       0.10000000E-09
  | This value may affect high angular momentum components of the Hartree potential in periodic systems.
  No q(lm)/r^(l+1) cutoff set for long-range Hartree potential.
  | Using default value of  0.100000E-09 .
  | Verify using the multipole_threshold keyword.
  Defaulting to new monopole extrapolation.
  Density update method: Loop over occupied states selected for charge density update.
------------------------------------------------------------


------------------------------------------------------------
          Reading geometry description geometry.in.
------------------------------------------------------------
  Input structure read successfully.
  The structure contains       16 atoms,  and a total of         51.000 electrons.

  Input geometry:
  | No unit cell requested.
  | Atomic structure:
  |       Atom                x [A]            y [A]            z [A]
  |    1: Species O             -4.053030         0.065001        -1.525160
  |    2: Species H             -4.566710         0.974813        -1.912820
  |    3: Species H             -3.067820         0.330172        -1.477310
  |    4: Species H             -4.370360        -0.049164        -0.572274
  |    5: Species O             -4.581760        -0.256435         0.939478
  |    6: Species H             -4.349860         0.471090         1.504340
  |    7: Species H             -5.393870        -0.726611         1.228070
  |    8: Species O             -1.645860         0.870179        -1.502250
  |    9: Species H             -1.568890         1.501730        -0.721051
  |   10: Species H             -0.824432         0.282220        -1.377720
  |   11: Species O             -1.975360         2.858040         0.453140
  |   12: Species H             -1.223550         3.375850         0.786238
  |   13: Species H             -2.537520         2.567960         1.156120
  |   14: Species O             -5.628340         3.730740         1.385610
  |   15: Species H             -6.090650         4.418470         1.860350
  |   16: Species H             -5.158540         4.200260         0.615875
  |

  | The smallest distance between any two atoms is         0.94570141 AA.
  |
  | The first atom of this pair is atom number                     11 .
  | The second atom of this pair is atom number                    13 .

  Structure-dependent array size parameters: 
  | Maximum number of distinct radial functions  :       18
  | Maximum number of basis functions            :      360
  | Number of Kohn-Sham states (occupied + empty):       90
------------------------------------------------------------

------------------------------------------------------------
          Preparing all fixed parts of the calculation.
------------------------------------------------------------
  Determining machine precision:
    2.225073858507201E-308
  Setting up grids for atomic and cluster calculations.

  Creating wave function, potential, and density for free atoms.

  Species: H

  List of occupied orbitals and eigenvalues:
    n    l              occ      energy [Ha]    energy [eV]
    1    0           1.0000        -0.241408        -6.5691


  Species: O

  List of occupied orbitals and eigenvalues:
    n    l              occ      energy [Ha]    energy [eV]
    1    0           2.0000       -18.944147      -515.4965
    2    0           2.0000        -0.883529       -24.0421
    2    1           4.0000        -0.330176        -8.9845

  Creating fixed part of basis set: Ionic, confined, hydrogenic.
 
  H                    hydrogenic:
 
  List of hydrogenic basis orbitals: 
    n    l      effective z      eigenvalue [eV]  inner max. [A]     outer max. [A]     outer radius [A]   
    2    0         2.100000       -14.9965           0.193241           1.317192           5.372934
    2    1         3.500000       -41.6672           0.602363           0.602363           4.056010
    1    0         0.850000        -9.8292           0.624864           0.624864           5.372934
    2    1         3.700000       -46.5653           0.573616           0.573616           3.909951
    2    0         1.200000        -4.5995           0.334977           2.228160           5.505921
    3    2         7.000000       -74.0753           0.680692           0.680692           3.769152
 
 
  O                    hydrogenic:
 
  List of hydrogenic basis orbitals: 
    n    l      effective z      eigenvalue [eV]  inner max. [A]     outer max. [A]     outer radius [A]   
    2    1         1.800000       -11.0118           1.178546           1.178546           5.432516
    3    2         7.600000       -87.3182           0.624117           0.624117           3.541422
    3    0         6.400000       -61.9209           0.061166           1.081887           4.306510
    4    3        11.600000      -114.4238           0.731621           0.731621           3.584982
    3    1         6.200000       -58.1113           0.255677           1.030255           4.306510
    3    2         5.600000       -47.4081           0.847222           0.847222           4.413102
    5    4        17.600000      -168.5799           0.749730           0.749730           3.372413
    1    0         0.750000        -7.6499           0.705275           0.705275           5.366508
 

  Adding cutoff potential to free-atom effective potential.
  Creating atomic-like basis functions for current effective potential.

  Species H                   :

  List of atomic basis orbitals and eigenvalues:
    n    l      energy [Ha]    energy [eV]    outer radius [A]
    1    0        -0.241374        -6.5681       5.372934


  Species O                   :

  List of atomic basis orbitals and eigenvalues:
    n    l      energy [Ha]    energy [eV]    outer radius [A]
    1    0       -18.944147      -515.4965       1.415745
    2    0        -0.883529       -24.0421       5.048305
    2    1        -0.330173        -8.9845       5.301302

  Assembling full basis from fixed parts.
  | Species H :   atomic orbital   1 s accepted.
  | Species H :    hydro orbital   2 s accepted.
  | Species H :    hydro orbital   1 s accepted.
  | Species H :    hydro orbital   2 s accepted.
  | Species H :    hydro orbital   2 p accepted.
  | Species H :    hydro orbital   2 p accepted.
  | Species H :    hydro orbital   3 d accepted.
  | Species O :   atomic orbital   1 s accepted.
  | Species O :    hydro orbital   3 s accepted.
  | Species O :   atomic orbital   2 s accepted.
  | Species O :    hydro orbital   1 s accepted.
  | Species O :    hydro orbital   3 p accepted.
  | Species O :   atomic orbital   2 p accepted.
  | Species O :    hydro orbital   2 p accepted.
  | Species O :    hydro orbital   3 d accepted.
  | Species O :    hydro orbital   3 d accepted.
  | Species O :    hydro orbital   4 f accepted.
  | Species O :    hydro orbital   5 g accepted.
 
  Basis size parameters after reduction:
  | Total number of radial functions:       18
  | Total number of basis functions :      360
 
  Testing on-site integration grid accuracy.
  |  Species  Function  <phi|h_atom|phi> (log., in eV)  <phi|h_atom|phi> (rad., in eV)
           1        1                 -6.5683835025                 -6.5684759159
           1        2                 13.3711789951                 13.3708738703
           1        3                 23.6590910787                 23.6532055418
           1        4                 16.2963827186                 16.1870710655 ***
           1        5                 28.7627214838                 28.7627215090
           1        6                 59.5965249172                 59.5965950857
           1        7                 60.2220506392                 60.2220503827
           2        8               -515.4964576505               -515.4964530710
           2        9                 15.3030791347                 15.3030722972
           2       10                -21.7296094581                -21.7296135470
           2       11                 14.2969371730                 14.2969701621
           2       12                 21.0679693190                 21.0679697493
           2       13                 -2.3833606469                 -2.3833613176
           2       14                 13.7067136422                 13.7066766629
           2       15                 45.8013116808                 45.8013116965
           2       16                 52.2309815402                 52.2309831494
           2       17                 85.4120732416                 85.4120732763
           2       18                142.1019167745                142.1019167817
 * Note: Onsite integrals marked "***" above are less accurate than
 * onsite_accuracy_threshold =    0.03000 eV. Usually, this is harmless.
 * When in doubt, tighten the "radial" and/or "radial_multiplier" flags to check.

  Preparing densities etc. for the partition functions (integrals / Hartree potential).

  Preparations completed.
  max(cpu_time)          :      0.169 s.
  Wall clock time (cpu1) :      0.671 s.
------------------------------------------------------------

------------------------------------------------------------
          Begin self-consistency loop: Initialization.

          Date     :  20150727, Time     :  122111.508
------------------------------------------------------------

  Initializing index lists of integration centers etc. from given atomic structure:
  | Number of centers in hartree potential         :        16
  | Number of centers in hartree multipole         :        16
  | Number of centers in electron density summation:        16
  | Number of centers in basis integrals           :        16
  | Number of centers in integrals                 :        16
  Partitioning the integration grid into batches with parallel hashing+maxmin method.
  | Number of batches:     2142
  | Maximal batch size:     187
  | Minimal batch size:      56
  | Average batch size:      97.247
  | Standard deviation of batch sizes:      32.187

  Integration load balanced across     8 MPI tasks.
  Work distribution over tasks is as follows:
  Task     0 has      25983 integration points.
  Task     1 has      26099 integration points.
  Task     2 has      26013 integration points.
  Task     3 has      26027 integration points.
  Task     4 has      26014 integration points.
  Task     5 has      26071 integration points.
  Task     6 has      26071 integration points.
  Task     7 has      26026 integration points.
  Initializing partition tables, free-atom densities, potentials, etc. across the integration grid (initialize_grid_storage).
  | Net number of integration points:   208304
  | of which are non-zero points    :   207724
  Obtaining max. number of non-zero basis functions in each batch (get_n_compute_maxes).
  | Maximal number of non-zero basis functions:      356 in task     0
  | Maximal number of non-zero basis functions:      356 in task     1
  | Maximal number of non-zero basis functions:      356 in task     2
  | Maximal number of non-zero basis functions:      356 in task     3
  | Maximal number of non-zero basis functions:      356 in task     4
  | Maximal number of non-zero basis functions:      356 in task     5
  | Maximal number of non-zero basis functions:      356 in task     6
  | Maximal number of non-zero basis functions:      357 in task     7
  Integrating Hamiltonian matrix: batch-based integration.
  Time summed over all CPUs for integration: real work        7.818 s, elapsed        7.933 s
  Integrating overlap matrix.
  Time summed over all CPUs for integration: real work        4.196 s, elapsed        4.235 s

  Updating Kohn-Sham eigenvalues, eigenvectors, occupation numbers, and Fermi level.
  Solving generalized eigenproblem
  Updating Kohn-Sham eigenvalues and eigenfunctions.
  Transforming overlap matrix and checking for singularities.
  Overlap matrix is nonsingular:
  | Lowest eigenvalue:  0.212677E-03
  Solving real generalised eigenvalue problem by standard LAPACK (fast)
  Determining occupation numbers for Kohn-Sham eigenstates.
  | Chemical potential (Fermi level) in eV                 : -.28669951E+01
  | Error in electron count due to remaining E_F inaccuracy: -.51159077E-11
  | Maximum occupation number of highest empty state:  0.00E+00

  Writing Kohn-Sham eigenvalues.

  State    Occupation    Eigenvalue [Ha]    Eigenvalue [eV]
      1       2.00000         -19.065172         -518.78973
      2       2.00000         -19.059147         -518.62579
      3       2.00000         -19.057220         -518.57333
      4       2.00000         -19.044522         -518.22781
      5       2.00000         -19.042577         -518.17489
      6       2.00000          -1.127284          -30.67495
      7       2.00000          -1.107872          -30.14673
      8       2.00000          -1.104407          -30.05244
      9       2.00000          -1.089115          -29.63632
     10       2.00000          -1.081523          -29.42973
     11       2.00000          -0.652278          -17.74939
     12       2.00000          -0.648991          -17.65994
     13       2.00000          -0.647419          -17.61717
     14       2.00000          -0.618278          -16.82419
     15       2.00000          -0.611076          -16.62822
     16       2.00000          -0.606396          -16.50089
     17       2.00000          -0.526879          -14.33710
     18       2.00000          -0.510823          -13.90020
     19       2.00000          -0.501629          -13.65003
     20       2.00000          -0.499418          -13.58986
     21       2.00000          -0.483476          -13.15604
     22       2.00000          -0.446167          -12.14082
     23       2.00000          -0.443537          -12.06926
     24       2.00000          -0.435777          -11.85808
     25       2.00000          -0.430178          -11.70574
     26       1.00000          -0.105360           -2.86700
     27       0.00000          -0.074206           -2.01926
     28       0.00000          -0.066379           -1.80627
     29       0.00000          -0.061142           -1.66375
     30       0.00000          -0.043141           -1.17393
     31       0.00000          -0.013347           -0.36318
     32       0.00000          -0.003747           -0.10197
     33       0.00000           0.032180            0.87567
     34       0.00000           0.036409            0.99075
     35       0.00000           0.044996            1.22441
     36       0.00000           0.052603            1.43141
     37       0.00000           0.061316            1.66849
     38       0.00000           0.068619            1.86723
     39       0.00000           0.088526            2.40891
     40       0.00000           0.095176            2.58987
     41       0.00000           0.100525            2.73542
     42       0.00000           0.104998            2.85715
     43       0.00000           0.107933            2.93699
     44       0.00000           0.114193            3.10735
     45       0.00000           0.126066            3.43042
     46       0.00000           0.131891            3.58894
     47       0.00000           0.136052            3.70216
     48       0.00000           0.145115            3.94879
     49       0.00000           0.146719            3.99243
     50       0.00000           0.156873            4.26872
     51       0.00000           0.172419            4.69176
     52       0.00000           0.189064            5.14469
     53       0.00000           0.206686            5.62421
     54       0.00000           0.219116            5.96245
     55       0.00000           0.225253            6.12944
     56       0.00000           0.229538            6.24604
     57       0.00000           0.250746            6.82315
     58       0.00000           0.266553            7.25328
     59       0.00000           0.277368            7.54756
     60       0.00000           0.290622            7.90823
     61       0.00000           0.297526            8.09609
     62       0.00000           0.328614            8.94205
     63       0.00000           0.347484            9.45552
     64       0.00000           0.355203            9.66556
     65       0.00000           0.362226            9.85668
     66       0.00000           0.372303           10.13089
     67       0.00000           0.386266           10.51084
     68       0.00000           0.390688           10.63116
     69       0.00000           0.405163           11.02506
     70       0.00000           0.409911           11.15423
     71       0.00000           0.419396           11.41235
     72       0.00000           0.429696           11.69262
     73       0.00000           0.436976           11.89073
     74       0.00000           0.453046           12.32800
     75       0.00000           0.466493           12.69392
     76       0.00000           0.478149           13.01109
     77       0.00000           0.495575           13.48527
     78       0.00000           0.511264           13.91220
     79       0.00000           0.517904           14.09288
     80       0.00000           0.545364           14.84012
     81       0.00000           0.560120           15.24165
     82       0.00000           0.584109           15.89442
     83       0.00000           0.610870           16.62261
     84       0.00000           0.620456           16.88348
     85       0.00000           0.652652           17.75956
     86       0.00000           0.702133           19.10601
     87       0.00000           0.704126           19.16025
     88       0.00000           0.733816           19.96816
     89       0.00000           0.738723           20.10167
     90       0.00000           0.752529           20.47736

  Highest occupied state (VBM) at    -11.70573636 eV
  | Occupation number:      2.00000000

  Lowest unoccupied state (CBM) at    -2.86699506 eV
  | Occupation number:      1.00000000

  Overall HOMO-LUMO gap:      8.83874130 eV.
  Calculating total energy contributions from superposition of free atom densities.

  Total energy components:
  | Sum of eigenvalues            :        -217.78767856 Ha       -5926.30426067 eV
  | XC energy correction          :         -45.94286080 Ha       -1250.16885032 eV
  | XC potential correction       :          58.71588180 Ha        1597.74043586 eV
  | Free-atom electrostatic energy:        -178.52784610 Ha       -4857.98986423 eV
  | Hartree energy correction     :           0.00000000 Ha           0.00000000 eV
  | van der Waals energy corr.    :           0.00000000 Ha           0.00000000 eV
  | Entropy correction            :          -0.00010367 Ha          -0.00282095 eV
  | ---------------------------
  | Total energy                  :        -383.54250367 Ha      -10436.72253937 eV
  | Total energy, T -> 0          :        -383.54260733 Ha      -10436.72536031 eV  <-- do not rely on this value for anything but (periodic) metals
  | Electronic free energy        :        -383.54271100 Ha      -10436.72818126 eV

  Derived energy quantities:
  | Kinetic energy                :         379.85934303 Ha       10336.49863906 eV
  | Electrostatic energy          :        -717.45898589 Ha      -19523.05232811 eV
  | Energy correction for multipole
  | error in Hartree potential    :           0.00000000 Ha           0.00000000 eV
  | Sum of eigenvalues per atom                           :        -370.39401629 eV
  | Total energy (T->0) per atom                          :        -652.29533502 eV  <-- do not rely on this value for anything but (periodic) metals
  | Electronic free energy per atom                       :        -652.29551133 eV
  Initialize hartree_potential_storage
  Max. number of atoms included in rho_multipole:           16

  End scf initialization - timings             :  max(cpu_time)    wall_clock(cpu1)
  | Time for scf. initialization               :        2.135 s           2.134 s
  | Boundary condition initialization          :        0.000 s           0.003 s
  | Integration                                :        1.525 s           1.525 s
  | Solution of K.-S. eqns.                    :        0.214 s           0.214 s
  | Grid partitioning                          :        0.155 s           0.156 s
  | Preloading free-atom quantities on grid    :        0.014 s           0.014 s
  | Free-atom superposition energy             :        0.072 s           0.072 s
  | Total energy evaluation                    :        0.001 s           0.000 s
------------------------------------------------------------

------------------------------------------------------------
          Begin self-consistency iteration #    1

  Date     :  20150727, Time     :  122113.642
------------------------------------------------------------
  Evaluating new KS density.
  Integration grid: deviation in total charge (<rho> - N_e) =  -5.101697E-12
  Pulay mixing of updated and previous charge densities.

  Evaluating partitioned Hartree potential by multipole expansion.
  | Analytical far-field extrapolation by fixed multipoles:
  | Hartree multipole sum: apparent total charge =  -0.933547E-06
  Summing up the Hartree potential.
  Time summed over all CPUs for potential: real work        2.893 s, elapsed        2.910 s
  | RMS charge density error from multipole expansion :   0.168385E-02

  Integrating Hamiltonian matrix: batch-based integration.
  Time summed over all CPUs for integration: real work        7.809 s, elapsed        7.934 s

  Updating Kohn-Sham eigenvalues, eigenvectors, occupation numbers, and Fermi level.
  Solving generalized eigenproblem
  Updating Kohn-Sham eigenvalues and eigenfunctions.
  Solving real generalised eigenvalue problem by standard LAPACK (fast)
  Determining occupation numbers for Kohn-Sham eigenstates.
  | Chemical potential (Fermi level) in eV                 : -.26390679E+01
  | Error in electron count due to remaining E_F inaccuracy: 0.57021765E-08
  | Maximum occupation number of highest empty state:  0.00E+00

  Writing Kohn-Sham eigenvalues.

  State    Occupation    Eigenvalue [Ha]    Eigenvalue [eV]
      1       2.00000         -19.007728         -517.22658
      2       2.00000         -18.986963         -516.66154
      3       2.00000         -18.979698         -516.46386
      4       2.00000         -18.972725         -516.27412
      5       2.00000         -18.964393         -516.04740
      6       2.00000          -1.098037          -29.87910
      7       2.00000          -1.070584          -29.13208
      8       2.00000          -1.069409          -29.10010
      9       2.00000          -1.048729          -28.53736
     10       2.00000          -1.046586          -28.47906
     11       2.00000          -0.623758          -16.97331
     12       2.00000          -0.620004          -16.87116
     13       2.00000          -0.616177          -16.76702
     14       2.00000          -0.585933          -15.94405
     15       2.00000          -0.583543          -15.87901
     16       2.00000          -0.577066          -15.70276
     17       2.00000          -0.494917          -13.46737
     18       2.00000          -0.475822          -12.94777
     19       2.00000          -0.462554          -12.58674
     20       2.00000          -0.461318          -12.55310
     21       2.00000          -0.452126          -12.30298
     22       2.00000          -0.410081          -11.15886
     23       2.00000          -0.404392          -11.00407
     24       2.00000          -0.399310          -10.86577
     25       2.00000          -0.388008          -10.55823
     26       1.00000          -0.096984           -2.63907
     27       0.00000          -0.066202           -1.80145
     28       0.00000          -0.058147           -1.58226
     29       0.00000          -0.053566           -1.45760
     30       0.00000          -0.035580           -0.96819
     31       0.00000          -0.006392           -0.17394
     32       0.00000           0.004522            0.12306
     33       0.00000           0.039232            1.06755
     34       0.00000           0.047168            1.28351
     35       0.00000           0.053102            1.44499
     36       0.00000           0.057793            1.57264
     37       0.00000           0.067564            1.83850
     38       0.00000           0.075752            2.06131
     39       0.00000           0.096874            2.63607
     40       0.00000           0.102445            2.78766
     41       0.00000           0.108106            2.94171
     42       0.00000           0.113158            3.07920
     43       0.00000           0.115251            3.13615
     44       0.00000           0.125594            3.41758
     45       0.00000           0.134778            3.66749
     46       0.00000           0.141594            3.85296
     47       0.00000           0.145647            3.96326
     48       0.00000           0.152606            4.15261
     49       0.00000           0.160168            4.35840
     50       0.00000           0.168985            4.59831
     51       0.00000           0.180661            4.91603
     52       0.00000           0.197894            5.38497
     53       0.00000           0.214540            5.83794
     54       0.00000           0.227309            6.18539
     55       0.00000           0.233076            6.34231
     56       0.00000           0.238280            6.48392
     57       0.00000           0.258675            7.03891
     58       0.00000           0.274266            7.46315
     59       0.00000           0.285035            7.75621
     60       0.00000           0.297887            8.10593
     61       0.00000           0.302907            8.24251
     62       0.00000           0.337328            9.17915
     63       0.00000           0.355469            9.67279
     64       0.00000           0.362051            9.85190
     65       0.00000           0.370444           10.08031
     66       0.00000           0.381008           10.36775
     67       0.00000           0.393550           10.70903
     68       0.00000           0.398092           10.83264
     69       0.00000           0.414656           11.28335
     70       0.00000           0.419299           11.40969
     71       0.00000           0.427049           11.62058
     72       0.00000           0.438336           11.92772
     73       0.00000           0.445437           12.12095
     74       0.00000           0.462270           12.57902
     75       0.00000           0.476638           12.96998
     76       0.00000           0.489260           13.31345
     77       0.00000           0.505353           13.75137
     78       0.00000           0.520591           14.16599
     79       0.00000           0.528757           14.38821
     80       0.00000           0.555110           15.10530
     81       0.00000           0.570681           15.52903
     82       0.00000           0.595332           16.19981
     83       0.00000           0.621979           16.92492
     84       0.00000           0.629779           17.13716
     85       0.00000           0.663853           18.06437
     86       0.00000           0.713851           19.42486
     87       0.00000           0.715769           19.47708
     88       0.00000           0.743884           20.24212
     89       0.00000           0.751527           20.45010
     90       0.00000           0.762908           20.75979

  Highest occupied state (VBM) at     -2.63906790 eV
  | Occupation number:      1.00000001

  Lowest unoccupied state (CBM) at    -1.80145147 eV
  | Occupation number:      0.00000000

  Overall HOMO-LUMO gap:      0.83761643 eV.

  Total energy components:
  | Sum of eigenvalues            :        -215.69670128 Ha       -5869.40587381 eV
  | XC energy correction          :         -46.16751848 Ha       -1256.28209675 eV
  | XC potential correction       :          59.00945093 Ha        1605.72885842 eV
  | Free-atom electrostatic energy:        -178.52784610 Ha       -4857.98986423 eV
  | Hartree energy correction     :          -2.03630727 Ha         -55.41074021 eV
  | van der Waals energy corr.    :           0.00000000 Ha           0.00000000 eV
  | Entropy correction            :          -0.00010367 Ha          -0.00282095 eV
  | ---------------------------
  | Total energy                  :        -383.41892220 Ha      -10433.35971659 eV
  | Total energy, T -> 0          :        -383.41902587 Ha      -10433.36253753 eV  <-- do not rely on this value for anything but (periodic) metals
  | Electronic free energy        :        -383.41912954 Ha      -10433.36535848 eV

  Derived energy quantities:
  | Kinetic energy                :         381.22710592 Ha       10373.71736110 eV
  | Electrostatic energy          :        -718.47850964 Ha      -19550.79498093 eV
  | Energy correction for multipole
  | error in Hartree potential    :           0.00032608 Ha           0.00887300 eV
  | Sum of eigenvalues per atom                           :        -366.83786711 eV
  | Total energy (T->0) per atom                          :        -652.08515860 eV  <-- do not rely on this value for anything but (periodic) metals
  | Electronic free energy per atom                       :        -652.08533491 eV

  Self-consistency convergence accuracy:
  | Change of charge density      : 0.6429E+00
  | Change of sum of eigenvalues  : 0.5690E+02 eV
  | Change of total energy        : 0.3363E+01 eV

  End self-consistency iteration #     1       :  max(cpu_time)    wall_clock(cpu1)
  | Time for this iteration                    :        2.079 s           2.079 s
  | Charge density update                      :        0.654 s           0.654 s
  | Density mixing                             :        0.003 s           0.004 s
  | Hartree multipole update                   :        0.005 s           0.005 s
  | Hartree multipole summation                :        0.364 s           0.364 s
  | Integration                                :        0.994 s           0.994 s
  | Solution of K.-S. eqns.                    :        0.057 s           0.057 s
  | Total energy evaluation                    :        0.000 s           0.000 s
------------------------------------------------------------

------------------------------------------------------------
          Begin self-consistency iteration #    2

  Date     :  20150727, Time     :  122115.721
------------------------------------------------------------
  Evaluating new KS density.
  Integration grid: deviation in total charge (<rho> - N_e) =   5.702184E-09
  Pulay mixing of updated and previous charge densities.

  Evaluating partitioned Hartree potential by multipole expansion.
  | Analytical far-field extrapolation by fixed multipoles:
  | Hartree multipole sum: apparent total charge =  -0.240811E-05
  Summing up the Hartree potential.
  Time summed over all CPUs for potential: real work        2.893 s, elapsed        2.909 s
  | RMS charge density error from multipole expansion :   0.684865E-02

  Integrating Hamiltonian matrix: batch-based integration.
  Time summed over all CPUs for integration: real work        7.796 s, elapsed        7.915 s

  Updating Kohn-Sham eigenvalues, eigenvectors, occupation numbers, and Fermi level.
  Solving generalized eigenproblem
  Updating Kohn-Sham eigenvalues and eigenfunctions.
  Solving real generalised eigenvalue problem by standard LAPACK (fast)
  Determining occupation numbers for Kohn-Sham eigenstates.
  | Chemical potential (Fermi level) in eV                 : -.20893491E+01
  | Error in electron count due to remaining E_F inaccuracy: 0.59754868E-08
  | Maximum occupation number of highest empty state:  0.00E+00

  Highest occupied state (VBM) at     -2.08934912 eV
  | Occupation number:      1.00000001

  Lowest unoccupied state (CBM) at    -1.26612331 eV
  | Occupation number:      0.00000000

  Overall HOMO-LUMO gap:      0.82322581 eV.

  Total energy components:
  | Sum of eigenvalues            :        -210.67668540 Ha       -5732.80429152 eV
  | XC energy correction          :         -46.73480971 Ha       -1271.71887643 eV
  | XC potential correction       :          59.74926825 Ha        1625.86031196 eV
  | Free-atom electrostatic energy:        -178.52784610 Ha       -4857.98986423 eV
  | Hartree energy correction     :          -7.08905607 Ha        -192.90303052 eV
  | van der Waals energy corr.    :           0.00000000 Ha           0.00000000 eV
  | Entropy correction            :          -0.00010367 Ha          -0.00282095 eV
  | ---------------------------
  | Total energy                  :        -383.27912903 Ha      -10429.55575074 eV
  | Total energy, T -> 0          :        -383.27923269 Ha      -10429.55857169 eV  <-- do not rely on this value for anything but (periodic) metals
  | Electronic free energy        :        -383.27933636 Ha      -10429.56139263 eV

  Derived energy quantities:
  | Kinetic energy                :         384.07988531 Ha       10451.34543775 eV
  | Electrostatic energy          :        -720.62420463 Ha      -19609.18231207 eV
  | Energy correction for multipole
  | error in Hartree potential    :           0.00039815 Ha           0.01083421 eV
  | Sum of eigenvalues per atom                           :        -358.30026822 eV
  | Total energy (T->0) per atom                          :        -651.84741073 eV  <-- do not rely on this value for anything but (periodic) metals
  | Electronic free energy per atom                       :        -651.84758704 eV

  Self-consistency convergence accuracy:
  | Change of charge density      : 0.4884E+00
  | Change of sum of eigenvalues  : 0.1366E+03 eV
  | Change of total energy        : 0.3804E+01 eV

  End self-consistency iteration #     2       :  max(cpu_time)    wall_clock(cpu1)
  | Time for this iteration                    :        2.076 s           2.076 s
  | Charge density update                      :        0.652 s           0.652 s
  | Density mixing                             :        0.006 s           0.006 s
  | Hartree multipole update                   :        0.005 s           0.005 s
  | Hartree multipole summation                :        0.364 s           0.364 s
  | Integration                                :        0.992 s           0.991 s
  | Solution of K.-S. eqns.                    :        0.057 s           0.057 s
  | Total energy evaluation                    :        0.000 s           0.000 s
------------------------------------------------------------

------------------------------------------------------------
          Begin self-consistency iteration #    3

  Date     :  20150727, Time     :  122117.797
------------------------------------------------------------
  Evaluating new KS density.
  Integration grid: deviation in total charge (<rho> - N_e) =   5.975494E-09
  Pulay mixing of updated and previous charge densities.

  Evaluating partitioned Hartree potential by multipole expansion.
  | Analytical far-field extrapolation by fixed multipoles:
  | Hartree multipole sum: apparent total charge =  -0.104018E-05
  Summing up the Hartree potential.
  Time summed over all CPUs for potential: real work        2.893 s, elapsed        2.910 s
  | RMS charge density error from multipole expansion :   0.141148E-01

  Integrating Hamiltonian matrix: batch-based integration.
  Time summed over all CPUs for integration: real work        7.796 s, elapsed        7.917 s

  Updating Kohn-Sham eigenvalues, eigenvectors, occupation numbers, and Fermi level.
  Solving generalized eigenproblem
  Updating Kohn-Sham eigenvalues and eigenfunctions.
  Solving real generalised eigenvalue problem by standard LAPACK (fast)
  Determining occupation numbers for Kohn-Sham eigenstates.
  | Chemical potential (Fermi level) in eV                 : -.20550030E+01
  | Error in electron count due to remaining E_F inaccuracy: 0.11381474E-09
  | Maximum occupation number of highest empty state:  0.00E+00

  Highest occupied state (VBM) at     -2.05500304 eV
  | Occupation number:      1.00000000

  Lowest unoccupied state (CBM) at    -1.23372161 eV
  | Occupation number:      0.00000000

  Overall HOMO-LUMO gap:      0.82128143 eV.

  Total energy components:
  | Sum of eigenvalues            :        -211.10458497 Ha       -5744.44803142 eV
  | XC energy correction          :         -46.71531130 Ha       -1271.18829784 eV
  | XC potential correction       :          59.71521275 Ha        1624.93361451 eV
  | Free-atom electrostatic energy:        -178.52784610 Ha       -4857.98986423 eV
  | Hartree energy correction     :          -6.64600927 Ha        -180.84711360 eV
  | van der Waals energy corr.    :           0.00000000 Ha           0.00000000 eV
  | Entropy correction            :          -0.00010367 Ha          -0.00282095 eV
  | ---------------------------
  | Total energy                  :        -383.27853890 Ha      -10429.53969259 eV
  | Total energy, T -> 0          :        -383.27864257 Ha      -10429.54251354 eV  <-- do not rely on this value for anything but (periodic) metals
  | Electronic free energy        :        -383.27874624 Ha      -10429.54533449 eV

  Derived energy quantities:
  | Kinetic energy                :         382.15480252 Ha       10398.96126983 eV
  | Electrostatic energy          :        -718.71803012 Ha      -19557.31266458 eV
  | Energy correction for multipole
  | error in Hartree potential    :          -0.00401051 Ha          -0.10913150 eV
  | Sum of eigenvalues per atom                           :        -359.02800196 eV
  | Total energy (T->0) per atom                          :        -651.84640710 eV  <-- do not rely on this value for anything but (periodic) metals
  | Electronic free energy per atom                       :        -651.84658341 eV

  Self-consistency convergence accuracy:
  | Change of charge density      : 0.2378E+00
  | Change of sum of eigenvalues  : -.1164E+02 eV
  | Change of total energy        : 0.1606E-01 eV

  End self-consistency iteration #     3       :  max(cpu_time)    wall_clock(cpu1)
  | Time for this iteration                    :        2.071 s           2.071 s
  | Charge density update                      :        0.645 s           0.645 s
  | Density mixing                             :        0.007 s           0.007 s
  | Hartree multipole update                   :        0.005 s           0.005 s
  | Hartree multipole summation                :        0.365 s           0.364 s
  | Integration                                :        0.991 s           0.992 s
  | Solution of K.-S. eqns.                    :        0.058 s           0.057 s
  | Total energy evaluation                    :        0.000 s           0.000 s
------------------------------------------------------------

------------------------------------------------------------
          Begin self-consistency iteration #    4

  Date     :  20150727, Time     :  122119.868
------------------------------------------------------------
  Evaluating new KS density.
  Integration grid: deviation in total charge (<rho> - N_e) =   1.138361E-10
  Pulay mixing of updated and previous charge densities.

  Evaluating partitioned Hartree potential by multipole expansion.
  | Analytical far-field extrapolation by fixed multipoles:
  | Hartree multipole sum: apparent total charge =  -0.122744E-05
  Summing up the Hartree potential.
  Time summed over all CPUs for potential: real work        2.892 s, elapsed        2.909 s
  | RMS charge density error from multipole expansion :   0.177872E-01

  Integrating Hamiltonian matrix: batch-based integration.
  Time summed over all CPUs for integration: real work        7.795 s, elapsed        7.950 s

  Updating Kohn-Sham eigenvalues, eigenvectors, occupation numbers, and Fermi level.
  Solving generalized eigenproblem
  Updating Kohn-Sham eigenvalues and eigenfunctions.
  Solving real generalised eigenvalue problem by standard LAPACK (fast)
  Determining occupation numbers for Kohn-Sham eigenstates.
  | Chemical potential (Fermi level) in eV                 : -.19060519E+01
  | Error in electron count due to remaining E_F inaccuracy: -.22964741E-10
  | Maximum occupation number of highest empty state:  0.00E+00

  Highest occupied state (VBM) at     -6.84469090 eV
  | Occupation number:      2.00000000

  Lowest unoccupied state (CBM) at    -1.90605185 eV
  | Occupation number:      1.00000000

  Overall HOMO-LUMO gap:      4.93863905 eV.

  Total energy components:
  | Sum of eigenvalues            :        -209.85879374 Ha       -5710.54832719 eV
  | XC energy correction          :         -46.88192069 Ha       -1275.72197000 eV
  | XC potential correction       :          59.93015821 Ha        1630.78257825 eV
  | Free-atom electrostatic energy:        -178.52784610 Ha       -4857.98986423 eV
  | Hartree energy correction     :          -7.93358037 Ha        -215.88370592 eV
  | van der Waals energy corr.    :           0.00000000 Ha           0.00000000 eV
  | Entropy correction            :          -0.00010367 Ha          -0.00282095 eV
  | ---------------------------
  | Total energy                  :        -383.27198269 Ha      -10429.36128910 eV
  | Total energy, T -> 0          :        -383.27208636 Ha      -10429.36411005 eV  <-- do not rely on this value for anything but (periodic) metals
  | Electronic free energy        :        -383.27219003 Ha      -10429.36693099 eV

  Derived energy quantities:
  | Kinetic energy                :         382.32308794 Ha       10403.54054908 eV
  | Electrostatic energy          :        -718.71314994 Ha      -19557.17986817 eV
  | Energy correction for multipole
  | error in Hartree potential    :          -0.00543729 Ha          -0.14795631 eV
  | Sum of eigenvalues per atom                           :        -356.90927045 eV
  | Total energy (T->0) per atom                          :        -651.83525688 eV  <-- do not rely on this value for anything but (periodic) metals
  | Electronic free energy per atom                       :        -651.83543319 eV

  Self-consistency convergence accuracy:
  | Change of charge density      : 0.1132E+00
  | Change of sum of eigenvalues  : 0.3390E+02 eV
  | Change of total energy        : 0.1784E+00 eV

  End self-consistency iteration #     4       :  max(cpu_time)    wall_clock(cpu1)
  | Time for this iteration                    :        2.076 s           2.076 s
  | Charge density update                      :        0.644 s           0.645 s
  | Density mixing                             :        0.009 s           0.008 s
  | Hartree multipole update                   :        0.005 s           0.005 s
  | Hartree multipole summation                :        0.364 s           0.365 s
  | Integration                                :        0.995 s           0.995 s
  | Solution of K.-S. eqns.                    :        0.057 s           0.057 s
  | Total energy evaluation                    :        0.001 s           0.001 s
------------------------------------------------------------

------------------------------------------------------------
          Begin self-consistency iteration #    5

  Date     :  20150727, Time     :  122121.944
------------------------------------------------------------
  Evaluating new KS density.
  Integration grid: deviation in total charge (<rho> - N_e) =  -2.297185E-11
  Pulay mixing of updated and previous charge densities.

  Evaluating partitioned Hartree potential by multipole expansion.
  | Analytical far-field extrapolation by fixed multipoles:
  | Hartree multipole sum: apparent total charge =  -0.124945E-05
  Summing up the Hartree potential.
  Time summed over all CPUs for potential: real work        2.892 s, elapsed        2.908 s
  | RMS charge density error from multipole expansion :   0.180195E-01

  Integrating Hamiltonian matrix: batch-based integration.
  Time summed over all CPUs for integration: real work        7.785 s, elapsed        7.901 s

  Updating Kohn-Sham eigenvalues, eigenvectors, occupation numbers, and Fermi level.
  Solving generalized eigenproblem
  Updating Kohn-Sham eigenvalues and eigenfunctions.
  Solving real generalised eigenvalue problem by standard LAPACK (fast)
  Determining occupation numbers for Kohn-Sham eigenstates.
  | Chemical potential (Fermi level) in eV                 : -.19026477E+01
  | Error in electron count due to remaining E_F inaccuracy: 0.14948967E-08
  | Maximum occupation number of highest empty state:  0.00E+00

  Highest occupied state (VBM) at     -1.90264769 eV
  | Occupation number:      1.00000000

  Lowest unoccupied state (CBM) at    -1.08715513 eV
  | Occupation number:      0.00000000

  Overall HOMO-LUMO gap:      0.81549256 eV.

  Total energy components:
  | Sum of eigenvalues            :        -209.84182701 Ha       -5710.08663895 eV
  | XC energy correction          :         -46.88495986 Ha       -1275.80467006 eV
  | XC potential correction       :          59.93376570 Ha        1630.88074306 eV
  | Free-atom electrostatic energy:        -178.52784610 Ha       -4857.98986423 eV
  | Hartree energy correction     :          -7.95100549 Ha        -216.35786751 eV
  | van der Waals energy corr.    :           0.00000000 Ha           0.00000000 eV
  | Entropy correction            :          -0.00010367 Ha          -0.00282095 eV
  | ---------------------------
  | Total energy                  :        -383.27187276 Ha      -10429.35829769 eV
  | Total energy, T -> 0          :        -383.27197643 Ha      -10429.36111864 eV  <-- do not rely on this value for anything but (periodic) metals
  | Electronic free energy        :        -383.27208010 Ha      -10429.36393959 eV

  Derived energy quantities:
  | Kinetic energy                :         382.36084080 Ha       10404.56785662 eV
  | Electrostatic energy          :        -718.74775369 Ha      -19558.12148426 eV
  | Energy correction for multipole
  | error in Hartree potential    :          -0.00565413 Ha          -0.15385676 eV
  | Sum of eigenvalues per atom                           :        -356.88041493 eV
  | Total energy (T->0) per atom                          :        -651.83506992 eV  <-- do not rely on this value for anything but (periodic) metals
  | Electronic free energy per atom                       :        -651.83524622 eV

  Self-consistency convergence accuracy:
  | Change of charge density      : 0.1701E-01
  | Change of sum of eigenvalues  : 0.4617E+00 eV
  | Change of total energy        : 0.2991E-02 eV

  End self-consistency iteration #     5       :  max(cpu_time)    wall_clock(cpu1)
  | Time for this iteration                    :        2.069 s           2.069 s
  | Charge density update                      :        0.642 s           0.642 s
  | Density mixing                             :        0.010 s           0.010 s
  | Hartree multipole update                   :        0.005 s           0.005 s
  | Hartree multipole summation                :        0.365 s           0.365 s
  | Integration                                :        0.989 s           0.989 s
  | Solution of K.-S. eqns.                    :        0.058 s           0.057 s
  | Total energy evaluation                    :        0.000 s           0.000 s
------------------------------------------------------------

------------------------------------------------------------
          Begin self-consistency iteration #    6

  Date     :  20150727, Time     :  122124.013
------------------------------------------------------------
  Evaluating new KS density.
  Integration grid: deviation in total charge (<rho> - N_e) =   1.494890E-09
  Pulay mixing of updated and previous charge densities.

  Evaluating partitioned Hartree potential by multipole expansion.
  | Analytical far-field extrapolation by fixed multipoles:
  | Hartree multipole sum: apparent total charge =  -0.121951E-05
  Summing up the Hartree potential.
  Time summed over all CPUs for potential: real work        2.892 s, elapsed        2.910 s
  | RMS charge density error from multipole expansion :   0.183093E-01

  Integrating Hamiltonian matrix: batch-based integration.
  Time summed over all CPUs for integration: real work        7.780 s, elapsed        7.902 s

  Updating Kohn-Sham eigenvalues, eigenvectors, occupation numbers, and Fermi level.
  Solving generalized eigenproblem
  Updating Kohn-Sham eigenvalues and eigenfunctions.
  Solving real generalised eigenvalue problem by standard LAPACK (fast)
  Determining occupation numbers for Kohn-Sham eigenstates.
  | Chemical potential (Fermi level) in eV                 : -.19056846E+01
  | Error in electron count due to remaining E_F inaccuracy: 0.12789769E-11
  | Maximum occupation number of highest empty state:  0.00E+00

  Highest occupied state (VBM) at     -1.90568463 eV
  | Occupation number:      1.00000000

  Lowest unoccupied state (CBM) at    -1.09198117 eV
  | Occupation number:      0.00000000

  Overall HOMO-LUMO gap:      0.81370346 eV.

  Total energy components:
  | Sum of eigenvalues            :        -209.85061464 Ha       -5710.32576255 eV
  | XC energy correction          :         -46.88600517 Ha       -1275.83311442 eV
  | XC potential correction       :          59.93472976 Ha        1630.90697636 eV
  | Free-atom electrostatic energy:        -178.52784610 Ha       -4857.98986423 eV
  | Hartree energy correction     :          -7.94216016 Ha        -216.11717386 eV
  | van der Waals energy corr.    :           0.00000000 Ha           0.00000000 eV
  | Entropy correction            :          -0.00010367 Ha          -0.00282095 eV
  | ---------------------------
  | Total energy                  :        -383.27189632 Ha      -10429.35893870 eV
  | Total energy, T -> 0          :        -383.27199998 Ha      -10429.36175965 eV  <-- do not rely on this value for anything but (periodic) metals
  | Electronic free energy        :        -383.27210365 Ha      -10429.36458060 eV

  Derived energy quantities:
  | Kinetic energy                :         382.34346105 Ha       10404.09492963 eV
  | Electrostatic energy          :        -718.72935219 Ha      -19557.62075391 eV
  | Energy correction for multipole
  | error in Hartree potential    :          -0.00588572 Ha          -0.16015865 eV
  | Sum of eigenvalues per atom                           :        -356.89536016 eV
  | Total energy (T->0) per atom                          :        -651.83510998 eV  <-- do not rely on this value for anything but (periodic) metals
  | Electronic free energy per atom                       :        -651.83528629 eV

  Self-consistency convergence accuracy:
  | Change of charge density      : 0.7946E-02
  | Change of sum of eigenvalues  : -.2391E+00 eV
  | Change of total energy        : -.6410E-03 eV

  End self-consistency iteration #     6       :  max(cpu_time)    wall_clock(cpu1)
  | Time for this iteration                    :        2.071 s           2.071 s
  | Charge density update                      :        0.642 s           0.642 s
  | Density mixing                             :        0.012 s           0.012 s
  | Hartree multipole update                   :        0.005 s           0.005 s
  | Hartree multipole summation                :        0.364 s           0.364 s
  | Integration                                :        0.990 s           0.989 s
  | Solution of K.-S. eqns.                    :        0.058 s           0.057 s
  | Total energy evaluation                    :        0.000 s           0.001 s
------------------------------------------------------------

------------------------------------------------------------
          Begin self-consistency iteration #    7

  Date     :  20150727, Time     :  122126.084
------------------------------------------------------------
  Evaluating new KS density.
  Integration grid: deviation in total charge (<rho> - N_e) =   1.264766E-12
  Pulay mixing of updated and previous charge densities.

  Evaluating partitioned Hartree potential by multipole expansion.
  | Analytical far-field extrapolation by fixed multipoles:
  | Hartree multipole sum: apparent total charge =  -0.115880E-05
  Summing up the Hartree potential.
  Time summed over all CPUs for potential: real work        2.893 s, elapsed        2.910 s
  | RMS charge density error from multipole expansion :   0.183013E-01

  Integrating Hamiltonian matrix: batch-based integration.
  Time summed over all CPUs for integration: real work        7.781 s, elapsed        7.897 s

  Updating Kohn-Sham eigenvalues, eigenvectors, occupation numbers, and Fermi level.
  Solving generalized eigenproblem
  Updating Kohn-Sham eigenvalues and eigenfunctions.
  Solving real generalised eigenvalue problem by standard LAPACK (fast)
  Determining occupation numbers for Kohn-Sham eigenstates.
  | Chemical potential (Fermi level) in eV                 : -.19167733E+01
  | Error in electron count due to remaining E_F inaccuracy: 0.23021585E-11
  | Maximum occupation number of highest empty state:  0.00E+00

  Highest occupied state (VBM) at     -1.91677334 eV
  | Occupation number:      1.00000000

  Lowest unoccupied state (CBM) at    -1.10361523 eV
  | Occupation number:      0.00000000

  Overall HOMO-LUMO gap:      0.81315811 eV.

  Total energy components:
  | Sum of eigenvalues            :        -209.89204092 Ha       -5711.45302903 eV
  | XC energy correction          :         -46.88142906 Ha       -1275.70859211 eV
  | XC potential correction       :          59.92859167 Ha        1630.73995050 eV
  | Free-atom electrostatic energy:        -178.52784610 Ha       -4857.98986423 eV
  | Hartree energy correction     :          -7.89914755 Ha        -214.94674113 eV
  | van der Waals energy corr.    :           0.00000000 Ha           0.00000000 eV
  | Entropy correction            :          -0.00010367 Ha          -0.00282095 eV
  | ---------------------------
  | Total energy                  :        -383.27187196 Ha      -10429.35827600 eV
  | Total energy, T -> 0          :        -383.27197563 Ha      -10429.36109695 eV  <-- do not rely on this value for anything but (periodic) metals
  | Electronic free energy        :        -383.27207930 Ha      -10429.36391790 eV

  Derived energy quantities:
  | Kinetic energy                :         382.36804149 Ha       10404.76379761 eV
  | Electrostatic energy          :        -718.75848439 Ha      -19558.41348150 eV
  | Energy correction for multipole
  | error in Hartree potential    :          -0.00595813 Ha          -0.16212909 eV
  | Sum of eigenvalues per atom                           :        -356.96581431 eV
  | Total energy (T->0) per atom                          :        -651.83506856 eV  <-- do not rely on this value for anything but (periodic) metals
  | Electronic free energy per atom                       :        -651.83524487 eV

  Self-consistency convergence accuracy:
  | Change of charge density      : 0.5930E-02
  | Change of sum of eigenvalues  : -.1127E+01 eV
  | Change of total energy        : 0.6627E-03 eV

  End self-consistency iteration #     7       :  max(cpu_time)    wall_clock(cpu1)
  | Time for this iteration                    :        2.072 s           2.071 s
  | Charge density update                      :        0.642 s           0.642 s
  | Density mixing                             :        0.012 s           0.013 s
  | Hartree multipole update                   :        0.005 s           0.005 s
  | Hartree multipole summation                :        0.364 s           0.364 s
  | Integration                                :        0.989 s           0.989 s
  | Solution of K.-S. eqns.                    :        0.057 s           0.058 s
  | Total energy evaluation                    :        0.000 s           0.000 s
------------------------------------------------------------

------------------------------------------------------------
          Begin self-consistency iteration #    8

  Date     :  20150727, Time     :  122128.155
------------------------------------------------------------
  Evaluating new KS density.
  Integration grid: deviation in total charge (<rho> - N_e) =   2.330580E-12
  Pulay mixing of updated and previous charge densities.

  Evaluating partitioned Hartree potential by multipole expansion.
  | Analytical far-field extrapolation by fixed multipoles:
  | Hartree multipole sum: apparent total charge =  -0.106518E-05
  Summing up the Hartree potential.
  Time summed over all CPUs for potential: real work        2.893 s, elapsed        2.910 s
  | RMS charge density error from multipole expansion :   0.183400E-01

  Integrating Hamiltonian matrix: batch-based integration.
  Time summed over all CPUs for integration: real work        7.772 s, elapsed        7.881 s

  Updating Kohn-Sham eigenvalues, eigenvectors, occupation numbers, and Fermi level.
  Solving generalized eigenproblem
  Updating Kohn-Sham eigenvalues and eigenfunctions.
  Solving real generalised eigenvalue problem by standard LAPACK (fast)
  Determining occupation numbers for Kohn-Sham eigenstates.
  | Chemical potential (Fermi level) in eV                 : -.19224348E+01
  | Error in electron count due to remaining E_F inaccuracy: 0.60850880E-10
  | Maximum occupation number of highest empty state:  0.00E+00

  Highest occupied state (VBM) at     -1.92243477 eV
  | Occupation number:      1.00000000

  Lowest unoccupied state (CBM) at    -1.10746555 eV
  | Occupation number:      0.00000000

  Overall HOMO-LUMO gap:      0.81496922 eV.

  Total energy components:
  | Sum of eigenvalues            :        -209.92637877 Ha       -5712.38740953 eV
  | XC energy correction          :         -46.87802799 Ha       -1275.61604430 eV
  | XC potential correction       :          59.92398682 Ha        1630.61464613 eV
  | Free-atom electrostatic energy:        -178.52784610 Ha       -4857.98986423 eV
  | Hartree energy correction     :          -7.86360140 Ha        -213.97948112 eV
  | van der Waals energy corr.    :           0.00000000 Ha           0.00000000 eV
  | Entropy correction            :          -0.00010367 Ha          -0.00282095 eV
  | ---------------------------
  | Total energy                  :        -383.27186744 Ha      -10429.35815305 eV
  | Total energy, T -> 0          :        -383.27197111 Ha      -10429.36097400 eV  <-- do not rely on this value for anything but (periodic) metals
  | Electronic free energy        :        -383.27207478 Ha      -10429.36379495 eV

  Derived energy quantities:
  | Kinetic energy                :         382.37973083 Ha       10405.08188061 eV
  | Electrostatic energy          :        -718.77357028 Ha      -19558.82398937 eV
  | Energy correction for multipole
  | error in Hartree potential    :          -0.00604298 Ha          -0.16443788 eV
  | Sum of eigenvalues per atom                           :        -357.02421310 eV
  | Total energy (T->0) per atom                          :        -651.83506088 eV  <-- do not rely on this value for anything but (periodic) metals
  | Electronic free energy per atom                       :        -651.83523718 eV

  Self-consistency convergence accuracy:
  | Change of charge density      : 0.3020E-02
  | Change of sum of eigenvalues  : -.9344E+00 eV
  | Change of total energy        : 0.1229E-03 eV

  End self-consistency iteration #     8       :  max(cpu_time)    wall_clock(cpu1)
  | Time for this iteration                    :        2.072 s           2.072 s
  | Charge density update                      :        0.643 s           0.643 s
  | Density mixing                             :        0.014 s           0.014 s
  | Hartree multipole update                   :        0.005 s           0.005 s
  | Hartree multipole summation                :        0.365 s           0.365 s
  | Integration                                :        0.987 s           0.987 s
  | Solution of K.-S. eqns.                    :        0.057 s           0.057 s
  | Total energy evaluation                    :        0.001 s           0.000 s
------------------------------------------------------------

------------------------------------------------------------
          Begin self-consistency iteration #    9

  Date     :  20150727, Time     :  122130.227
------------------------------------------------------------
  Evaluating new KS density.
  Integration grid: deviation in total charge (<rho> - N_e) =   6.085799E-11
  Pulay mixing of updated and previous charge densities.

  Evaluating partitioned Hartree potential by multipole expansion.
  | Analytical far-field extrapolation by fixed multipoles:
  | Hartree multipole sum: apparent total charge =  -0.106003E-05
  Summing up the Hartree potential.
  Time summed over all CPUs for potential: real work        2.892 s, elapsed        2.911 s
  | RMS charge density error from multipole expansion :   0.183235E-01

  Integrating Hamiltonian matrix: batch-based integration.
  Time summed over all CPUs for integration: real work        7.776 s, elapsed        7.885 s

  Updating Kohn-Sham eigenvalues, eigenvectors, occupation numbers, and Fermi level.
  Solving generalized eigenproblem
  Updating Kohn-Sham eigenvalues and eigenfunctions.
  Solving real generalised eigenvalue problem by standard LAPACK (fast)
  Determining occupation numbers for Kohn-Sham eigenstates.
  | Chemical potential (Fermi level) in eV                 : -.19240595E+01
  | Error in electron count due to remaining E_F inaccuracy: 0.18196999E-10
  | Maximum occupation number of highest empty state:  0.00E+00

  Highest occupied state (VBM) at     -1.92405945 eV
  | Occupation number:      1.00000000

  Lowest unoccupied state (CBM) at    -1.10847690 eV
  | Occupation number:      0.00000000

  Overall HOMO-LUMO gap:      0.81558255 eV.

  Total energy components:
  | Sum of eigenvalues            :        -209.93011748 Ha       -5712.48914491 eV
  | XC energy correction          :         -46.87768134 Ha       -1275.60661154 eV
  | XC potential correction       :          59.92353198 Ha        1630.60226928 eV
  | Free-atom electrostatic energy:        -178.52784610 Ha       -4857.98986423 eV
  | Hartree energy correction     :          -7.85975257 Ha        -213.87474931 eV
[...]
   Van der Waals               : 0.101504E-02 0.242438E-02 0.118734E-02
   ----------------------------------------------------------------
   Total forces(   7)            : 0.152741E+00 0.455234E+00 0.303583E+00
  atom #    8
   Hellmann-Feynman + Multipole  : -.457959E+01 0.211217E+01 -.953237E+01
   Pulay + GGA                   : 0.634831E+01 -.261809E+01 0.103649E+02
   Van der Waals               : 0.347933E-02 -.226623E-02 -.946547E-03
   ----------------------------------------------------------------
   Total forces(   8)            : 0.177220E+01 -.508189E+00 0.831598E+00
  atom #    9
   Hellmann-Feynman + Multipole  : -.308354E+00 -.897154E-01 -.571735E+00
   Pulay + GGA                   : 0.310256E-01 0.399111E-01 0.774848E-01
   Van der Waals               : 0.360244E-02 0.147381E-02 0.363200E-02
   ----------------------------------------------------------------
   Total forces(   9)            : -.273726E+00 -.483305E-01 -.490618E+00
  atom #   10
   Hellmann-Feynman + Multipole  : -.151764E+01 0.785502E+00 -.363959E+00
   Pulay + GGA                   : 0.107348E+00 -.666152E-01 0.246868E-01
   Van der Waals               : -.226037E-02 0.196936E-02 0.276566E-02
   ----------------------------------------------------------------
   Total forces(  10)            : -.141255E+01 0.720856E+00 -.336507E+00
  atom #   11
   Hellmann-Feynman + Multipole  : -.308989E+01 -.617150E+00 -.146446E+02
   Pulay + GGA                   : 0.394689E+01 0.839442E+00 0.127560E+02
   Van der Waals               : -.115729E-01 -.332108E-02 0.133785E-02
   ----------------------------------------------------------------
   Total forces(  11)            : 0.845420E+00 0.218970E+00 -.188721E+01
  atom #   12
   Hellmann-Feynman + Multipole  : -.229353E+00 -.850324E-01 0.401806E+00
   Pulay + GGA                   : 0.107167E+00 0.722561E-01 0.565718E-01
   Van der Waals               : -.398001E-02 -.296864E-02 -.153138E-02
   ----------------------------------------------------------------
   Total forces(  12)            : -.126165E+00 -.157450E-01 0.456846E+00
  atom #   13
   Hellmann-Feynman + Multipole  : -.608280E+00 -.142114E+00 0.135757E+01
   Pulay + GGA                   : -.750676E-01 -.550262E-01 0.100096E+00
   Van der Waals               : 0.708256E-03 -.554302E-02 -.300347E-02
   ----------------------------------------------------------------
   Total forces(  13)            : -.682639E+00 -.202683E+00 0.145466E+01
  atom #   14
   Hellmann-Feynman + Multipole  : 0.120256E+01 -.159983E+02 0.179575E+01
   Pulay + GGA                   : 0.860297E-01 0.159794E+02 -.351567E+01
   Van der Waals               : 0.437739E-02 -.670301E-02 -.337088E-02
   ----------------------------------------------------------------
   Total forces(  14)            : 0.129297E+01 -.255779E-01 -.172330E+01
  atom #   15
   Hellmann-Feynman + Multipole  : -.279628E+00 0.618428E+00 0.238948E+00
   Pulay + GGA                   : -.817068E-01 0.949893E-01 0.904584E-01
   Van der Waals               : 0.208473E-02 -.209024E-02 -.828729E-03
   ----------------------------------------------------------------
   Total forces(  15)            : -.359250E+00 0.711327E+00 0.328577E+00
  atom #   16
   Hellmann-Feynman + Multipole  : -.934073E+00 -.829033E+00 0.150555E+01
   Pulay + GGA                   : 0.494928E-01 0.712572E-01 -.116842E+00
   Van der Waals               : 0.111942E-02 -.428781E-02 -.160935E-02
   ----------------------------------------------------------------
   Total forces(  16)            : -.883460E+00 -.762063E+00 0.138710E+01
  Timings for vdw_correction_hirshfeld (Tkatchenko-Scheffler 2009):
  | CPU time:        5.531 s, Wall clock time:        5.531 s.
  Removing unitary transformations (pure translations, rotations) from forces on atoms.
  Atomic forces before filtering:
  | Net force on center of mass :  0.126059E-02 0.341053E-02 -.152425E-01 eV/A
  | Net torque on center of mass:  0.178764E-01 -.274088E-03 -.142788E-01 eV
  Atomic forces after filtering:
  | Net force on center of mass :  -.356812E-15 -.892031E-16 -.713624E-15 eV/A
  | Net torque on center of mass:  -.377634E-14 0.755268E-15 0.000000E+00 eV
 
  Energy and forces in a compact form:
  | Total energy uncorrected      :         -0.104294466396104E+05 eV
  | Total energy corrected        :         -0.104294494605583E+05 eV  <-- do not rely on this value for anything but (periodic) metals
  | Electronic free energy        :         -0.104294522815063E+05 eV
  Total atomic forces (unitary forces cleaned) [eV/Ang]:
  |   1         -0.153628823575666E+01          0.154181482453877E+01         -0.171602406080156E+01
  |   2          0.849270910728433E+00         -0.161103889582851E+01          0.716444712816409E+00
  |   3          0.849630288023003E+00          0.105636181579180E+00         -0.869118781748722E-01
  |   4         -0.183015828577725E+00         -0.613504965355984E-01          0.793697253179393E+00
  |   5         -0.193759403853209E+00         -0.159871783168457E+01         -0.117395263428427E+01
  |   6         -0.109101333296841E+00          0.108014152415570E+01          0.113512093672623E+01
  |   7          0.153262759360097E+00          0.454969839462301E+00          0.305371448396913E+00
  |   8          0.177215111806494E+01         -0.508448008297093E+00          0.832611254893786E+00
  |   9         -0.273854693033519E+00         -0.483314423647561E-01         -0.489804503113012E+00
  |  10         -0.141245146655617E+01          0.720821241935592E+00         -0.335373695554674E+00
  |  11          0.845073069446655E+00          0.219239235921346E+00         -0.188678012325564E+01
  |  12         -0.126603380549544E+00         -0.152034977108360E-01          0.457055968077284E+00
  |  13         -0.682866764531350E+00         -0.202324322502074E+00          0.145522195703076E+01
  |  14          0.129249311209909E+01         -0.258461715838526E-01         -0.172286370127135E+01
  |  15         -0.359842606552044E+00          0.711100670515155E+00          0.328833123781534E+00
  |  16         -0.884097545015149E+00         -0.762462851600744E+00          0.138735394155307E+01
 
  ------------------------------------ 
  Start decomposition of the XC Energy 
  ------------------------------------ 
  Hartree-Fock part   :          0.000000000 Ha              0.000000000 eV
  ------------------------------------ 
  X Energy            :        -45.220965174 Ha          -1230.525070808 eV
  C Energy GGA        :         -1.656906537 Ha            -45.086720865 eV
  Total XC Energy     :        -46.877871711 Ha          -1275.611791673 eV
  LDA X and C from self-consistent density 
  X Energy LDA        :        -40.757644917 Ha          -1109.071947151 eV
  C Energy LDA        :         -3.338646746 Ha            -90.849200322 eV
  ------------------------------------ 
  End decomposition of the XC Energy 
  ------------------------------------ 
  Performing Hirshfeld analysis of fragment charges and moments.
  ----------------------------------------------------------------------
  | Atom     1: O
  |   Hirshfeld charge        :     -0.13609264
  |   Free atom volume        :     23.95238533
  |   Hirshfeld volume        :     22.17343794
  |   Hirshfeld dipole vector :      0.01926527       0.01861678       0.02884716
  |   Hirshfeld dipole moment :      0.03936869
  |   Hirshfeld second moments:      0.06608154      -0.00621014      -0.01019627
  |                                 -0.00621014       0.03572767      -0.02551582
  |                                 -0.01019627      -0.02551582       0.05024291
  ----------------------------------------------------------------------
  | Atom     2: H
  |   Hirshfeld charge        :      0.07046949
  |   Free atom volume        :     10.44207651
  |   Hirshfeld volume        :     13.84640412
  |   Hirshfeld dipole vector :      0.02515606      -0.01451068       0.01445693
  |   Hirshfeld dipole moment :      0.03244057
  |   Hirshfeld second moments:     -0.03162670       0.02797592      -0.01793604
  |                                  0.02797592      -0.05807622       0.01981277
  |                                 -0.01793604       0.01981277      -0.01951084
  ----------------------------------------------------------------------
  | Atom     3: H
  |   Hirshfeld charge        :      0.10193273
  |   Free atom volume        :     10.44207651
  |   Hirshfeld volume        :      9.63538846
  |   Hirshfeld dipole vector :      0.02019631       0.00091798       0.00923671
  |   Hirshfeld dipole moment :      0.02222724
  |   Hirshfeld second moments:      0.01860902      -0.01405557      -0.00518016
  |                                 -0.01405557       0.05202518       0.00589349
  |                                 -0.00518016       0.00589349       0.06020503
  ----------------------------------------------------------------------
  | Atom     4: H
  |   Hirshfeld charge        :      0.09925373
  |   Free atom volume        :     10.44207651
  |   Hirshfeld volume        :      9.87773487
  |   Hirshfeld dipole vector :     -0.00413953      -0.00476912       0.02143641
  |   Hirshfeld dipole moment :      0.02234726
  |   Hirshfeld second moments:      0.05197736       0.01388457       0.00348145
  |                                  0.01388457       0.05192599       0.00609603
  |                                  0.00348145       0.00609603       0.01315208
  ----------------------------------------------------------------------
  | Atom     5: O
  |   Hirshfeld charge        :     -0.22864643
  |   Free atom volume        :     23.95238533
  |   Hirshfeld volume        :     22.30967651
  |   Hirshfeld dipole vector :     -0.02706377       0.02253799      -0.00556927
  |   Hirshfeld dipole moment :      0.03565705
  |   Hirshfeld second moments:      0.01972480       0.05374486      -0.01618221
  |                                  0.05374486       0.02920336       0.01850531
  |                                 -0.01618221       0.01850531       0.04811178
  ----------------------------------------------------------------------
  | Atom     6: H
  |   Hirshfeld charge        :      0.11047097
  |   Free atom volume        :     10.44207651
  |   Hirshfeld volume        :     10.09100824
  |   Hirshfeld dipole vector :      0.01922290       0.05979325       0.03138465
  |   Hirshfeld dipole moment :      0.07021217
  |   Hirshfeld second moments:      0.04202674       0.02374943      -0.01588986
  |                                  0.02374943       0.04029563      -0.00483269
  |                                 -0.01588986      -0.00483269       0.04144164
  ----------------------------------------------------------------------
  | Atom     7: H
  |   Hirshfeld charge        :      0.12455908
  |   Free atom volume        :     10.44207651
  |   Hirshfeld volume        :     10.51857184
  |   Hirshfeld dipole vector :     -0.06208224      -0.04293573       0.01435220
  |   Hirshfeld dipole moment :      0.07683532
  |   Hirshfeld second moments:      0.02402520       0.01755332      -0.00501713
  |                                  0.01755332       0.04593797       0.01490615
  |                                 -0.00501713       0.01490615       0.05078214
  ----------------------------------------------------------------------
  | Atom     8: O
  |   Hirshfeld charge        :     -0.23031134
  |   Free atom volume        :     23.95238533
  |   Hirshfeld volume        :     22.33316333
  |   Hirshfeld dipole vector :     -0.00884077      -0.01874211       0.03447050
  |   Hirshfeld dipole moment :      0.04021991
  |   Hirshfeld second moments:      0.05414632      -0.01442114       0.00558142
  |                                 -0.01442114       0.03188974       0.03622036
  |                                  0.00558142       0.03622036      -0.00527429
  ----------------------------------------------------------------------
  | Atom     9: H
  |   Hirshfeld charge        :      0.09160520
  |   Free atom volume        :     10.44207651
  |   Hirshfeld volume        :      9.57915784
  |   Hirshfeld dipole vector :      0.01024977       0.02009552       0.03526804
  |   Hirshfeld dipole moment :      0.04186552
  |   Hirshfeld second moments:      0.06956371       0.00769775      -0.00284319
  |                                  0.00769775       0.03740798      -0.00654603
  |                                 -0.00284319      -0.00654603       0.02056619
  ----------------------------------------------------------------------
  | Atom    10: H
  |   Hirshfeld charge        :      0.12401238
  |   Free atom volume        :     10.44207651
  |   Hirshfeld volume        :      9.67982139
  |   Hirshfeld dipole vector :      0.06378969      -0.04760800       0.00652732
  |   Hirshfeld dipole moment :      0.07986396
  |   Hirshfeld second moments:      0.05447797       0.00605861      -0.00130974
  |                                  0.00605861       0.05713897       0.01788846
  |                                 -0.00130974       0.01788846       0.05010325
  ----------------------------------------------------------------------
  | Atom    11: O
  |   Hirshfeld charge        :     -0.26076423
  |   Free atom volume        :     23.95238533
  |   Hirshfeld volume        :     22.40068325
  |   Hirshfeld dipole vector :      0.01893492      -0.01317363       0.02864399
  |   Hirshfeld dipole moment :      0.03677708
  |   Hirshfeld second moments:      0.03941624       0.04347912      -0.02812451
  |                                  0.04347912       0.01055559       0.02274405
  |                                 -0.02812451       0.02274405       0.01609968
  ----------------------------------------------------------------------
  | Atom    12: H
  |   Hirshfeld charge        :      0.12116937
  |   Free atom volume        :     10.44207651
  |   Hirshfeld volume        :      9.70746816
  |   Hirshfeld dipole vector :      0.07085832       0.04807815       0.01863167
  |   Hirshfeld dipole moment :      0.08763304
  |   Hirshfeld second moments:      0.05391212       0.01452210      -0.01646887
  |                                  0.01452210       0.04770877       0.00404410
  |                                 -0.01646887       0.00404410       0.05834139
  ----------------------------------------------------------------------
  | Atom    13: H
  |   Hirshfeld charge        :      0.10246894
  |   Free atom volume        :     10.44207651
  |   Hirshfeld volume        :      9.70255244
  |   Hirshfeld dipole vector :     -0.04953394      -0.02493032       0.04483789
  |   Hirshfeld dipole moment :      0.07131317
  |   Hirshfeld second moments:      0.05601097       0.01725338       0.00288288
  |                                  0.01725338       0.05002593       0.01421338
  |                                  0.00288288       0.01421338       0.03245205
  ----------------------------------------------------------------------
  | Atom    14: O
  |   Hirshfeld charge        :     -0.31909686
  |   Free atom volume        :     23.95238533
  |   Hirshfeld volume        :     23.73660776
  |   Hirshfeld dipole vector :     -0.00408135       0.07118949      -0.00547016
  |   Hirshfeld dipole moment :      0.07151590
  |   Hirshfeld second moments:     -0.03342094      -0.02352553      -0.06801203
  |                                 -0.02352553      -0.02949635      -0.00081437
  |                                 -0.06801203      -0.00081437      -0.00619344
  ----------------------------------------------------------------------
  | Atom    15: H
  |   Hirshfeld charge        :      0.12120233
  |   Free atom volume        :     10.44207651
  |   Hirshfeld volume        :      8.15455376
  |   Hirshfeld dipole vector :     -0.06116814       0.08386365       0.06147208
  |   Hirshfeld dipole moment :      0.12063777
  |   Hirshfeld second moments:      0.07467031      -0.00212356      -0.02449227
  |                                 -0.00212356       0.07454964      -0.00640517
  |                                 -0.02449227      -0.00640517       0.08998375
  ----------------------------------------------------------------------
  | Atom    16: H
  |   Hirshfeld charge        :      0.10772909
  |   Free atom volume        :     10.44207651
  |   Hirshfeld volume        :      9.82522851
  |   Hirshfeld dipole vector :      0.03907069       0.05812264      -0.05741356
  |   Hirshfeld dipole moment :      0.09055980
  |   Hirshfeld second moments:      0.04352227      -0.02163981      -0.00982982
  |                                 -0.02163981       0.06097944      -0.00677591
  |                                 -0.00982982      -0.00677591       0.03004523
  ----------------------------------------------------------------------


------------------------------------------------------------------------------
  Final output of selected total energy values:

  The following output summarizes some interesting total energy values
  at the end of a run (AFTER all relaxation, molecular dynamics, etc.).

  | Total energy of the DFT / Hartree-Fock s.c.f. calculation      :         -10429.446639610 eV
  | Final zero-broadening corrected energy (caution - metals only) :         -10429.449460558 eV
  | For reference only, the value of 1 Hartree used in FHI-aims is :             27.211384500 eV

  Before relying on these values, please be sure to understand exactly which
  total energy value is referred to by a given number. Different objects may
  all carry the same name 'total energy'. Definitions:

  Total energy of the DFT / Hartree-Fock s.c.f. calculation:
  | Note that this energy does not include ANY quantities calculated after the
  | s.c.f. cycle, in particular not ANY RPA, MP2, etc. many-body perturbation terms.

  Final zero-broadening corrected energy:
  | For metallic systems only, a broadening of the occupation numbers at the Fermi
  | level can be extrapolated back to zero broadening by an electron-gas inspired
  | formula. For all systems that are not real metals, this value can be
  | meaningless and should be avoided.

------------------------------------------------------------------------------

------------------------------------------------------------
          Leaving FHI-aims.
          Date     :  20150727, Time     :  122151.072

          Computational steps:
          | Number of self-consistency cycles          :           16

          Detailed time accounting                     :  max(cpu_time)    wall_clock(cpu1)
          | Total time                                 :       40.245 s          40.276 s
          | Preparation time                           :        0.169 s           0.671 s
          | Grid partitioning                          :        0.155 s           0.156 s
          | Preloading free-atom quantities on grid    :        0.014 s           0.014 s
          | Free-atom superposition energy             :        0.072 s           0.072 s
          | Total time for integrations                :       17.356 s          17.357 s
          | Total time for solution of K.-S. equations :        1.133 s           1.129 s
          | Total time for density & force components  :       13.172 s          13.173 s
          | Total time for mixing                      :        0.217 s           0.215 s
          | Total time for Hartree multipole update    :        0.080 s           0.080 s
          | Total time for Hartree multipole sum       :        7.044 s           7.045 s
          | Total time for total energy evaluation     :        0.006 s           0.006 s
          | Total time for scaled ZORA corrections     :        0.000 s           0.000 s
          | Total time for TS (2009) vdW correction    :        0.059 s           0.058 s

          Have a nice day.
------------------------------------------------------------
