  MPI-parallelism will be employed.
------------------------------------------------------------
          Invoking FHI-aims ...
          Version 081213
          Compiled on 2013/08/29 at 17:41:06 on host generoso.

          When using FHI-aims, please cite the following reference:

          Volker Blum, Ralf Gehrke, Felix Hanke, Paula Havu,
          Ville Havu, Xinguo Ren, Karsten Reuter, and Matthias Scheffler,
          'Ab Initio Molecular Simulations with Numeric Atom-Centered Orbitals: FHI-aims',
          Computer Physics Communications 180, 2175-2196 (2009)

          For any questions about FHI-aims, please visit the aimsclub website
          with its forums and wiki. Contributions to both the forums and the
          wiki are warmly encouraged - they are for you, and everyone is welcome there.

------------------------------------------------------------

  Date     :  20150727, Time     :  115347.922
  Time zero on CPU 1             :   0.409930000000000E-01  s.
  Internal wall clock time zero  :           207230027.922  s.

  Using        8 parallel tasks.
  Task        0 on host gen59 reporting.
  Task        1 on host gen59 reporting.
  Task        2 on host gen59 reporting.
  Task        3 on host gen59 reporting.
  Task        4 on host gen59 reporting.
  Task        5 on host gen59 reporting.
  Task        6 on host gen59 reporting.
  Task        7 on host gen59 reporting.

  Performing system and environment tests:
  | Environment variable OMP_NUM_THREADS correctly set to 1.
  | Checking for scalapack...
  | No scalapack compiled in.

  Obtaining array dimensions for all initial allocations:
  
  -----------------------------------------------------------------------
  Parsing control.in (first pass over file, find array dimensions only).
  The contents of control.in will be repeated verbatim below
  unless switched off by setting 'verbatim_writeout .false.' .
  in the first line of control.in .
  -----------------------------------------------------------------------
  
  #########################################################################################
  #
  #  Volker Blum, FHI 2008 : Test run input file control.in
  #
  #########################################################################################
  #
  #  Physical model
  #
    xc                 rpbe
    spin               none
    relativistic       atomic_zora scalar
    charge             0.
   vdw_correction_hirshfeld
  #
  #  SCF convergence
  #
    occupation_type    gaussian 0.01
    mixer              pulay
      n_max_pulay        10
      charge_mix_param   0.1
    sc_accuracy_rho    5E-5
    sc_accuracy_eev    5E-3
    sc_accuracy_etot   5E-6
    sc_iter_limit      3000
  #
  #  Eigenvalue solver
  #
    KS_method          lapack
      empty_states       8
      basis_threshold    0.e-5
  #
  #  Efficiency
  #
  #   all previous settings are now default, except stratmann still
  #   undecided. Continue to handle stratmann with care, if at all.
  #
  #  partition_type stratmann
    partition_type rho_r2
  #  hartree_partition_type stratmann
  #
  #  Oprions for large clusters (100's of atoms: memory saving / better scaling)
  #
  # for periodic systems:
  #
    density_update_method orbital
    packed_matrix_format none
  #  k_grid 6 6 6
  #  output k_eigenvalue 1
  #  distributed_spline_storage .true.
  #
  #  Relaxation
  #
  #  relax_geometry   bfgs 5.e-3
    sc_accuracy_forces 5.E-4
    final_forces_cleaned .true.
  #
  #  Output options
  #
  #  output mulliken
    output Hirshfeld
  #  output dipole
  
  #harmonic_length_scale 0.001
  
  ################################################################################
  #
  #  FHI-aims code project
  #  VB, Fritz-Haber Institut, 2007
  #
  #  Suggested "safe" defaults for H atom (to be pasted into control.in file)
  #  Basis constructed for a non-relativistic H2 molecule using the
  #  PW-LDA functional.
  #
  ################################################################################
    species        H
  #     global species definitions
      nucleus             1
      cut_pot             4.0  2.0  1.0
      cut_free_atom       finite 8.0
      logarithmic         0.00010000 100.00  1.0123
      basis_dep_cutoff    1d-4  # 1d-4 is safe default - please check 5d-4 if you wish!
      radial_base         24 7.0
      radial_multiplier   2
      angular_grids       specified
        division   0.2783  110
        division   0.3822  194
        division   0.5626  302
  #      division   0.5922  434
  #      division   0.6227  590
  #      division   0.7206  770
        outer_grid  302
      l_hartree           4
  ################################################################################
  #
  #  Definition of "minimal" basis
  #
  ################################################################################
  #     valence basis states
      valence      1  s   1.
  #     ion occupancy
      ion_occ      1  s   0.5
  ################################################################################
  #
  #  Suggested additional basis functions. For production calculations,
  #  uncomment them one after another (the most important basis functions are
  #  listed first).
  #
  ################################################################################
  #  "First tier" - improvements: -1014.90 meV to -62.69 meV
       hydro 2 s 2.1
       hydro 2 p 3.5
  #  "Second tier" - improvements: -12.89 meV to -1.83 meV
       hydro 1 s 0.85
       hydro 2 p 3.7
       hydro 2 s 1.2
       hydro 3 d 7
  #  "Third tier" - improvements: -0.25 meV to -0.12 meV
  #     hydro 4 f 11.2
  #     hydro 3 p 4.8
  #     hydro 4 d 9
  #     hydro 3 s 3.2
  
  ################################################################################
  #
  #  FHI-aims code project
  #  VB, Fritz-Haber Institut, 2007
  #
  #  Suggested "safe" defaults for O atom (to be pasted into control.in file)
  #  All values have been tested for a non-relativistic, non-spinpolarized O2
  #  molecule using the PW-LDA functional. Validity for PBE is expected.
  #
  #  Constructed for dimers: 1.0 A, 1.208 A, 1.5 A, 2.0 A, 3.0 A
  #
  ################################################################################
    species        O
  #     global species definitions
      nucleus             8
      mass                15.9994
      l_hartree           4
      cut_pot             4.0  2.0  1.0
      cut_free_atom       finite 8.0
      basis_dep_cutoff    1d-4  # 1d-4 is safe default - please check 5d-4 if you wish!
      logarithmic         0.00010000 100.00  1.0123
      radial_base         36 7.0
      radial_multiplier   2
       angular_grids specified
        division   0.4087  110
        division   0.5181  194
        division   0.6184  302
  #      division   0.7315  434
  #      division   0.7934  590
  #      division   0.9656  770
  #      division   1.4041  974
  #      outer_grid 974
        outer_grid 302
  ################################################################################
  #
  #  Definition of "minimal" basis
  #
  ################################################################################
  #     valence basis states
      valence      2  s   2.
      valence      2  p   4.
  #     ion occupancy
      ion_occ      2  s   1.
      ion_occ      2  p   3.
  ################################################################################
  #
  #  Suggested additional basis functions. For production calculations,
  #  uncomment them one after another (the most important basis functions are
  #  listed first).
  #
  ################################################################################
  #  "First tier" - improvements: -699.05 meV to -159.38 meV
       hydro 2 p 1.8
       hydro 3 d 7.6
       hydro 3 s 6.4
  #  "Second tier" - improvements: -49.91 meV to -5.39 meV
       hydro 4 f 11.6
       hydro 3 p 6.2
       hydro 3 d 5.6
       hydro 5 g 17.6
       hydro 1 s 0.75
  #  "Third tier" - improvements: -2.83 meV to -0.50 meV
  #     ionic 2 p auto
  #     hydro 4 f 10.8
  #     hydro 4 d 4.7
  #     hydro 2 s 6.8
  #  "Fourth tier" - improvements: -0.40 meV to -0.12 meV
  #     hydro 3 p 5
  #     hydro 3 s 3.3
  #     hydro 5 g 15.6
  #     hydro 4 f 17.6
  #     hydro 4 d 14
  # Further basis functions - -0.08 meV and below
  #     hydro 3 s 2.1
  #     hydro 4 d 11.6
  #     hydro 3 p 16
  #     hydro 2 s 17.2
  
  
  -----------------------------------------------------------------------
  Completed first pass over input file control.in .
  -----------------------------------------------------------------------
  
  
  -----------------------------------------------------------------------
  Parsing geometry.in (first pass over file, find array dimensions only).
  The contents of geometry.in will be repeated verbatim below
  unless switched off by setting 'verbatim_writeout .false.' .
  in the first line of geometry.in .
  -----------------------------------------------------------------------
  
  atom      -4.053030000      0.065001000     -1.525160000  O
  atom      -4.566710000      0.974813000     -1.912820000  H
  atom      -3.067820000      0.330172000     -1.477310000  H
  atom      -4.370360000     -0.049164000     -0.572274000  H
  atom      -4.581760000     -0.256435000      0.939478000  O
  atom      -4.349860000      0.471090000      1.504340000  H
  atom      -5.393870000     -0.726611000      1.228070000  H
  atom      -5.293160000      2.192130000     -2.328800000  O
  atom      -4.829300000      2.988660000     -1.973850000  H
  atom      -5.428570000      2.328640000     -3.235170000  H
  atom      -1.645860000      0.870179000     -1.502250000  O
  atom      -1.568890000      1.501730000     -0.721051000  H
  atom      -0.824432000      0.282220000     -1.377720000  H
  atom      -1.975360000      2.858040000      0.453140000  O
  atom      -1.223550000      3.375850000      0.786238000  H
  atom      -2.537520000      2.567960000      1.156120000  H
  atom      -5.628340000      3.730740000      1.385610000  O
  atom      -6.090650000      4.418470000      1.860350000  H
  atom      -5.158540000      4.200260000      0.615875000  H
  
  -----------------------------------------------------------------------
  Completed first pass over input file geometry.in .
  -----------------------------------------------------------------------
  
 
  Basic array size parameters: 
  | Number of species                 :        2
  | Number of atoms                   :       19
  | Max. basis fn. angular momentum   :        4
  | Max. atomic/ionic basis occupied n:        2
  | Max. number of basis fn. types    :        2
  | Max. radial fns per species/type  :        8
  | Max. logarithmic grid size        :     1301
  | Max. radial integration grid size :       73
  | Max. angular integration grid size:      302
  | Max. angular grid division number :        8
  | Radial grid for Hartree potential :     1301
  | Number of spin channels           :        1

------------------------------------------------------------
          Reading file control.in.
------------------------------------------------------------
  XC: Using RPBE gradient-corrected functionals.
  Spin treatment: No spin polarisation.
  Scalar relativistic treatment of kinetic energy: on-site free-atom approximation to ZORA.
  Charge =   0.000000E+00: Neutral system requested explicitly.
  Using non-empirical van der Waals correction (Hirshfeld partitioning):
  Occupation type: Gaussian broadening, width =   0.100000E-01 eV.
  Using pulay charge density mixing.
  Pulay mixing - number of memorized iterations:   10
  Charge density mixing - mixing parameter:     0.1000
  Convergence accuracy of self-consistent charge density: 0.5000E-04
  Convergence accuracy of sum of eigenvalues: 0.5000E-02
  Convergence accuracy of total energy: 0.5000E-05
  Maximum number of s.-c. iterations  :  3000
  Kohn-Sham eigenvalues and eigenfunctions calculated by lapack diagonalisation (D&C).
  Number of empty states per atom:        8
  Threshold for basis singularities: 0.0000E+00
  Partition function in integrals calculations: rho / r^2
 Using packed matrix format           0
  Convergence accuracy of forces: 0.5000E-03
  Cleaning forces before final output.
  Hirshfeld charge analysis will be performed.
 
  Reading configuration options for species H                   .
  | Found nuclear charge :   1.0000
  | Found cutoff potl. onset [A], width [A], scale factor :    4.00000    2.00000    1.00000
  | Found cutoff specification for free atom: Cutoff potential begins at    8.00000 A.
  | Found logarithmic grid data [bohr] : 0.1000E-03 0.1000E+03 0.1012E+01
  | Threshold for basis-dependent cutoff potential is   0.100000E-03
  | Found data for basic radial integration grid :    24 points, outermost radius =    7.000 A
  | Found multiplier for basic radial grid :   2
  | Found angular grid specification: user-specified.
  | Specified grid contains     4 separate shells.
  | Check grid settings after all constraints further below.
  | Found l_max for Hartree potential  :   4
  | Found free-atom valence shell :  1 s   1.000
  | No ionic wave fns used. Skipping ion_occ.
  | Found hydrogenic basis function :  2 s   2.100
  | Found hydrogenic basis function :  2 p   3.500
  | Found hydrogenic basis function :  1 s   0.850
  | Found hydrogenic basis function :  2 p   3.700
  | Found hydrogenic basis function :  2 s   1.200
  | Found hydrogenic basis function :  3 d   7.000
  Species H                   : Missing cutoff potential type.
  Defaulting to exp(1/x)/(1-x)^2 type cutoff potential.
  Species H : On-site basis accuracy parameter (for Gram-Schmidt orthonormalisation) not specified.
  Using default value basis_acc =  0.1000000E-03.
  Species H                   : Using default innermost maximum threshold i_radial=  2 for radial functions.
  Species H                   : Basic radial grid will be enhanced according to radial_multiplier =   2, to contain    49 grid points.
 
  Reading configuration options for species O                   .
  | Found nuclear charge :   8.0000
  | Found atomic mass :    15.9994000000000      amu
  | Found l_max for Hartree potential  :   4
  | Found cutoff potl. onset [A], width [A], scale factor :    4.00000    2.00000    1.00000
  | Found cutoff specification for free atom: Cutoff potential begins at    8.00000 A.
  | Threshold for basis-dependent cutoff potential is   0.100000E-03
  | Found logarithmic grid data [bohr] : 0.1000E-03 0.1000E+03 0.1012E+01
  | Found data for basic radial integration grid :    36 points, outermost radius =    7.000 A
  | Found multiplier for basic radial grid :   2
  | Found angular grid specification: user-specified.
  | Specified grid contains     4 separate shells.
  | Check grid settings after all constraints further below.
  | Found free-atom valence shell :  2 s   2.000
  | Found free-atom valence shell :  2 p   4.000
  | No ionic wave fns used. Skipping ion_occ.
  | No ionic wave fns used. Skipping ion_occ.
  | Found hydrogenic basis function :  2 p   1.800
  | Found hydrogenic basis function :  3 d   7.600
  | Found hydrogenic basis function :  3 s   6.400
  | Found hydrogenic basis function :  4 f  11.600
  | Found hydrogenic basis function :  3 p   6.200
  | Found hydrogenic basis function :  3 d   5.600
  | Found hydrogenic basis function :  5 g  17.600
  | Found hydrogenic basis function :  1 s   0.750
  Species O                   : Missing cutoff potential type.
  Defaulting to exp(1/x)/(1-x)^2 type cutoff potential.
  Species O : On-site basis accuracy parameter (for Gram-Schmidt orthonormalisation) not specified.
  Using default value basis_acc =  0.1000000E-03.
  Species O                   : Using default innermost maximum threshold i_radial=  2 for radial functions.
  Species O                   : Basic radial grid will be enhanced according to radial_multiplier =   2, to contain    73 grid points.
 
  Finished reading input file 'control.in'. Consistency checks are next.
 
  Target number of points in a grid batch is not set. Defaulting to  100
  Method for grid partitioning is not set. Defaulting to parallel hash+maxmin partitioning.
  Batch size limit is not set. Defaulting to    200
  By default, will store active basis functions for each batch.
  If in need of memory, prune_basis_once .false. can be used to disable this option.
  communication_type for Hartree potential was not specified.
  Defaulting to calc_hartree .
  Pulay mixer: Number of initial linear mixing iterations not set.
  Defaulting to    0 iterations.
  Work space size for distributed Hartree potential not set.
  Defaulting to   0.200000E+03 MB.
  Algorithm-dependent basis array size parameters:
  | n_max_pulay                         :       10
  Geometry relaxation not requested: no relaxation will be performed.
  Handling of forces: Unphysical translation and rotation will be removed from forces.
  No accuracy limit for integral partition fn. given. Defaulting to 0.1000E-14.
  No threshold value for u(r) in integrations given. Defaulting to 0.1000E-05.
  No accuracy for occupation numbers given. Defaulting to 0.1000E-07.
  No threshold value for occupation numbers given. Defaulting to 0.0000E+00.
  No accuracy for fermi level given. Defaulting to 0.1000E-19.
  Maximum # of iterations to find E_F not set. Defaulting to  200.
  Will not use alltoall communication since running on < 1024 CPUs.
  Partitioning for Hartree potential was not defined. Using partition_type for integrals.
  | Reporting present value of keyword multip_moments_threshold  :       0.10000000E-09
  | This value may affect high angular momentum components of the Hartree potential in periodic systems.
  No q(lm)/r^(l+1) cutoff set for long-range Hartree potential.
  | Using default value of  0.100000E-09 .
  | Verify using the multipole_threshold keyword.
  Defaulting to new monopole extrapolation.
  Density update method: Loop over occupied states selected for charge density update.
------------------------------------------------------------


------------------------------------------------------------
          Reading geometry description geometry.in.
------------------------------------------------------------
  Input structure read successfully.
  The structure contains       19 atoms,  and a total of         61.000 electrons.

  Input geometry:
  | No unit cell requested.
  | Atomic structure:
  |       Atom                x [A]            y [A]            z [A]
  |    1: Species O             -4.053030         0.065001        -1.525160
  |    2: Species H             -4.566710         0.974813        -1.912820
  |    3: Species H             -3.067820         0.330172        -1.477310
  |    4: Species H             -4.370360        -0.049164        -0.572274
  |    5: Species O             -4.581760        -0.256435         0.939478
  |    6: Species H             -4.349860         0.471090         1.504340
  |    7: Species H             -5.393870        -0.726611         1.228070
  |    8: Species O             -5.293160         2.192130        -2.328800
  |    9: Species H             -4.829300         2.988660        -1.973850
  |   10: Species H             -5.428570         2.328640        -3.235170
  |   11: Species O             -1.645860         0.870179        -1.502250
  |   12: Species H             -1.568890         1.501730        -0.721051
  |   13: Species H             -0.824432         0.282220        -1.377720
  |   14: Species O             -1.975360         2.858040         0.453140
  |   15: Species H             -1.223550         3.375850         0.786238
  |   16: Species H             -2.537520         2.567960         1.156120
  |   17: Species O             -5.628340         3.730740         1.385610
  |   18: Species H             -6.090650         4.418470         1.860350
  |   19: Species H             -5.158540         4.200260         0.615875
  |

  | The smallest distance between any two atoms is         0.92654057 AA.
  |
  | The first atom of this pair is atom number                      8 .
  | The second atom of this pair is atom number                    10 .

  Structure-dependent array size parameters: 
  | Maximum number of distinct radial functions  :       18
  | Maximum number of basis functions            :      429
  | Number of Kohn-Sham states (occupied + empty):      107
------------------------------------------------------------

------------------------------------------------------------
          Preparing all fixed parts of the calculation.
------------------------------------------------------------
  Determining machine precision:
    2.225073858507201E-308
  Setting up grids for atomic and cluster calculations.

  Creating wave function, potential, and density for free atoms.

  Species: H

  List of occupied orbitals and eigenvalues:
    n    l              occ      energy [Ha]    energy [eV]
    1    0           1.0000        -0.241408        -6.5691


  Species: O

  List of occupied orbitals and eigenvalues:
    n    l              occ      energy [Ha]    energy [eV]
    1    0           2.0000       -18.944147      -515.4965
    2    0           2.0000        -0.883529       -24.0421
    2    1           4.0000        -0.330176        -8.9845

  Creating fixed part of basis set: Ionic, confined, hydrogenic.
 
  H                    hydrogenic:
 
  List of hydrogenic basis orbitals: 
    n    l      effective z      eigenvalue [eV]  inner max. [A]     outer max. [A]     outer radius [A]   
    2    0         2.100000       -14.9965           0.193241           1.317192           5.372934
    2    1         3.500000       -41.6672           0.602363           0.602363           4.056010
    1    0         0.850000        -9.8292           0.624864           0.624864           5.372934
    2    1         3.700000       -46.5653           0.573616           0.573616           3.909951
    2    0         1.200000        -4.5995           0.334977           2.228160           5.505921
    3    2         7.000000       -74.0753           0.680692           0.680692           3.769152
 
 
  O                    hydrogenic:
 
  List of hydrogenic basis orbitals: 
    n    l      effective z      eigenvalue [eV]  inner max. [A]     outer max. [A]     outer radius [A]   
    2    1         1.800000       -11.0118           1.178546           1.178546           5.432516
    3    2         7.600000       -87.3182           0.624117           0.624117           3.541422
    3    0         6.400000       -61.9209           0.061166           1.081887           4.306510
    4    3        11.600000      -114.4238           0.731621           0.731621           3.584982
    3    1         6.200000       -58.1113           0.255677           1.030255           4.306510
    3    2         5.600000       -47.4081           0.847222           0.847222           4.413102
    5    4        17.600000      -168.5799           0.749730           0.749730           3.372413
    1    0         0.750000        -7.6499           0.705275           0.705275           5.366508
 

  Adding cutoff potential to free-atom effective potential.
  Creating atomic-like basis functions for current effective potential.

  Species H                   :

  List of atomic basis orbitals and eigenvalues:
    n    l      energy [Ha]    energy [eV]    outer radius [A]
    1    0        -0.241374        -6.5681       5.372934


  Species O                   :

  List of atomic basis orbitals and eigenvalues:
    n    l      energy [Ha]    energy [eV]    outer radius [A]
    1    0       -18.944147      -515.4965       1.415745
    2    0        -0.883529       -24.0421       5.048305
    2    1        -0.330173        -8.9845       5.301302

  Assembling full basis from fixed parts.
  | Species H :   atomic orbital   1 s accepted.
  | Species H :    hydro orbital   2 s accepted.
  | Species H :    hydro orbital   1 s accepted.
  | Species H :    hydro orbital   2 s accepted.
  | Species H :    hydro orbital   2 p accepted.
  | Species H :    hydro orbital   2 p accepted.
  | Species H :    hydro orbital   3 d accepted.
  | Species O :   atomic orbital   1 s accepted.
  | Species O :    hydro orbital   3 s accepted.
  | Species O :   atomic orbital   2 s accepted.
  | Species O :    hydro orbital   1 s accepted.
  | Species O :    hydro orbital   3 p accepted.
  | Species O :   atomic orbital   2 p accepted.
  | Species O :    hydro orbital   2 p accepted.
  | Species O :    hydro orbital   3 d accepted.
  | Species O :    hydro orbital   3 d accepted.
  | Species O :    hydro orbital   4 f accepted.
  | Species O :    hydro orbital   5 g accepted.
 
  Basis size parameters after reduction:
  | Total number of radial functions:       18
  | Total number of basis functions :      429
 
  Testing on-site integration grid accuracy.
  |  Species  Function  <phi|h_atom|phi> (log., in eV)  <phi|h_atom|phi> (rad., in eV)
           1        1                 -6.5683835025                 -6.5684759159
           1        2                 13.3711789951                 13.3708738703
           1        3                 23.6590910787                 23.6532055418
           1        4                 16.2963827186                 16.1870710655 ***
           1        5                 28.7627214838                 28.7627215090
           1        6                 59.5965249172                 59.5965950857
           1        7                 60.2220506392                 60.2220503827
           2        8               -515.4964576505               -515.4964530710
           2        9                 15.3030791347                 15.3030722972
           2       10                -21.7296094581                -21.7296135470
           2       11                 14.2969371730                 14.2969701621
           2       12                 21.0679693190                 21.0679697493
           2       13                 -2.3833606469                 -2.3833613176
           2       14                 13.7067136422                 13.7066766629
           2       15                 45.8013116808                 45.8013116965
           2       16                 52.2309815402                 52.2309831494
           2       17                 85.4120732416                 85.4120732763
           2       18                142.1019167745                142.1019167817
 * Note: Onsite integrals marked "***" above are less accurate than
 * onsite_accuracy_threshold =    0.03000 eV. Usually, this is harmless.
 * When in doubt, tighten the "radial" and/or "radial_multiplier" flags to check.

  Preparing densities etc. for the partition functions (integrals / Hartree potential).

  Preparations completed.
  max(cpu_time)          :      0.173 s.
  Wall clock time (cpu1) :      0.475 s.
------------------------------------------------------------

------------------------------------------------------------
          Begin self-consistency loop: Initialization.

          Date     :  20150727, Time     :  115348.423
------------------------------------------------------------

  Initializing index lists of integration centers etc. from given atomic structure:
  | Number of centers in hartree potential         :        19
  | Number of centers in hartree multipole         :        19
  | Number of centers in electron density summation:        19
  | Number of centers in basis integrals           :        19
  | Number of centers in integrals                 :        19
  Partitioning the integration grid into batches with parallel hashing+maxmin method.
  | Number of batches:     2475
  | Maximal batch size:     172
  | Minimal batch size:      61
  | Average batch size:     100.059
  | Standard deviation of batch sizes:      34.794

  Integration load balanced across     8 MPI tasks.
  Work distribution over tasks is as follows:
  Task     0 has      30953 integration points.
  Task     1 has      30926 integration points.
  Task     2 has      30985 integration points.
  Task     3 has      31024 integration points.
  Task     4 has      30985 integration points.
  Task     5 has      30955 integration points.
  Task     6 has      30892 integration points.
  Task     7 has      30926 integration points.
  Initializing partition tables, free-atom densities, potentials, etc. across the integration grid (initialize_grid_storage).
  | Net number of integration points:   247646
  | of which are non-zero points    :   247051
  Obtaining max. number of non-zero basis functions in each batch (get_n_compute_maxes).
  | Maximal number of non-zero basis functions:      424 in task     0
  | Maximal number of non-zero basis functions:      424 in task     1
  | Maximal number of non-zero basis functions:      424 in task     2
  | Maximal number of non-zero basis functions:      419 in task     3
  | Maximal number of non-zero basis functions:      424 in task     4
  | Maximal number of non-zero basis functions:      424 in task     5
  | Maximal number of non-zero basis functions:      423 in task     6
  | Maximal number of non-zero basis functions:      424 in task     7
  Integrating Hamiltonian matrix: batch-based integration.
  Time summed over all CPUs for integration: real work       11.670 s, elapsed       11.920 s
  Integrating overlap matrix.
  Time summed over all CPUs for integration: real work        6.402 s, elapsed        6.552 s

  Updating Kohn-Sham eigenvalues, eigenvectors, occupation numbers, and Fermi level.
  Solving generalized eigenproblem
  Updating Kohn-Sham eigenvalues and eigenfunctions.
  Transforming overlap matrix and checking for singularities.
  Overlap matrix is nonsingular:
  | Lowest eigenvalue:  0.188613E-03
  Solving real generalised eigenvalue problem by standard LAPACK (fast)
  Determining occupation numbers for Kohn-Sham eigenstates.
  | Chemical potential (Fermi level) in eV                 : -.28296716E+01
  | Error in electron count due to remaining E_F inaccuracy: -.18720883E-08
  | Maximum occupation number of highest empty state:  0.00E+00

  Writing Kohn-Sham eigenvalues.

  State    Occupation    Eigenvalue [Ha]    Eigenvalue [eV]
      1       2.00000         -19.065401         -518.79595
      2       2.00000         -19.064865         -518.78137
      3       2.00000         -19.059149         -518.62583
      4       2.00000         -19.057226         -518.57351
      5       2.00000         -19.044535         -518.22816
      6       2.00000         -19.042584         -518.17506
      7       2.00000          -1.131939          -30.80163
      8       2.00000          -1.117140          -30.39893
      9       2.00000          -1.107883          -30.14703
     10       2.00000          -1.104005          -30.04151
     11       2.00000          -1.089146          -29.63718
     12       2.00000          -1.081504          -29.42921
     13       2.00000          -0.652426          -17.75342
     14       2.00000          -0.650971          -17.71383
     15       2.00000          -0.649028          -17.66096
     16       2.00000          -0.647726          -17.62551
     17       2.00000          -0.626661          -17.05231
     18       2.00000          -0.618332          -16.82566
     19       2.00000          -0.607744          -16.53756
     20       2.00000          -0.543317          -14.78441
     21       2.00000          -0.514986          -14.01349
     22       2.00000          -0.506858          -13.79231
     23       2.00000          -0.501623          -13.64986
     24       2.00000          -0.499399          -13.58934
     25       2.00000          -0.483111          -13.14611
     26       2.00000          -0.452759          -12.32020
     27       2.00000          -0.446123          -12.13961
     28       2.00000          -0.443551          -12.06963
     29       2.00000          -0.435743          -11.85718
     30       2.00000          -0.430206          -11.70649
     31       1.00000          -0.103989           -2.82967
     32       0.00000          -0.073715           -2.00588
     33       0.00000          -0.064561           -1.75680
     34       0.00000          -0.060306           -1.64102
     35       0.00000          -0.043391           -1.18073
     36       0.00000          -0.014172           -0.38565
     37       0.00000          -0.011742           -0.31950
     38       0.00000           0.008005            0.21782
     39       0.00000           0.022486            0.61187
     40       0.00000           0.039330            1.07022
     41       0.00000           0.045932            1.24988
     42       0.00000           0.046815            1.27391
     43       0.00000           0.055379            1.50694
     44       0.00000           0.066144            1.79988
     45       0.00000           0.078897            2.14689
     46       0.00000           0.084278            2.29332
     47       0.00000           0.091893            2.50054
     48       0.00000           0.096572            2.62785
     49       0.00000           0.099334            2.70302
     50       0.00000           0.112078            3.04980
     51       0.00000           0.113321            3.08362
     52       0.00000           0.121507            3.30638
     53       0.00000           0.124786            3.39560
     54       0.00000           0.134893            3.67062
     55       0.00000           0.136869            3.72439
     56       0.00000           0.141709            3.85611
     57       0.00000           0.146368            3.98287
     58       0.00000           0.154447            4.20271
     59       0.00000           0.163658            4.45337
     60       0.00000           0.169496            4.61221
     61       0.00000           0.189581            5.15875
     62       0.00000           0.197398            5.37147
     63       0.00000           0.211349            5.75109
     64       0.00000           0.214065            5.82501
     65       0.00000           0.231765            6.30665
     66       0.00000           0.234015            6.36787
     67       0.00000           0.258312            7.02904
     68       0.00000           0.272306            7.40983
     69       0.00000           0.278233            7.57112
     70       0.00000           0.280796            7.64084
     71       0.00000           0.298853            8.13221
     72       0.00000           0.303618            8.26186
     73       0.00000           0.322651            8.77979
     74       0.00000           0.338414            9.20870
     75       0.00000           0.351263            9.55836
     76       0.00000           0.359891            9.79314
     77       0.00000           0.370540           10.08291
     78       0.00000           0.373130           10.15337
     79       0.00000           0.388340           10.56727
     80       0.00000           0.389220           10.59121
     81       0.00000           0.401901           10.93627
     82       0.00000           0.415980           11.31940
     83       0.00000           0.427677           11.63767
     84       0.00000           0.431685           11.74676
     85       0.00000           0.441900           12.02471
     86       0.00000           0.444672           12.10014
     87       0.00000           0.457369           12.44565
     88       0.00000           0.468959           12.76104
     89       0.00000           0.484086           13.17265
     90       0.00000           0.495501           13.48327
     91       0.00000           0.515400           14.02476
     92       0.00000           0.518638           14.11285
     93       0.00000           0.526960           14.33930
     94       0.00000           0.544130           14.80654
     95       0.00000           0.558040           15.18504
     96       0.00000           0.568752           15.47653
     97       0.00000           0.598545           16.28723
     98       0.00000           0.613399           16.69143
     99       0.00000           0.615952           16.76091
    100       0.00000           0.651617           17.73141
    101       0.00000           0.675454           18.38004
    102       0.00000           0.702995           19.12948
    103       0.00000           0.723504           19.68754
    104       0.00000           0.744102           20.24805
    105       0.00000           0.760888           20.70483
    106       0.00000           0.763445           20.77439
    107       0.00000           0.790761           21.51769

  Highest occupied state (VBM) at    -11.70649421 eV
  | Occupation number:      2.00000000

  Lowest unoccupied state (CBM) at    -2.82967160 eV
  | Occupation number:      1.00000000

  Overall HOMO-LUMO gap:      8.87682261 eV.
  Calculating total energy contributions from superposition of free atom densities.

  Total energy components:
  | Sum of eigenvalues            :        -261.45586941 Ha       -7114.57619217 eV
  | XC energy correction          :         -55.10060112 Ha       -1499.36364329 eV
  | XC potential correction       :          70.42374608 Ha        1916.32763263 eV
  | Free-atom electrostatic energy:        -214.03929610 Ha       -5824.30558416 eV
  | Hartree energy correction     :           0.00000000 Ha           0.00000000 eV
  | van der Waals energy corr.    :           0.00000000 Ha           0.00000000 eV
  | Entropy correction            :          -0.00010367 Ha          -0.00282095 eV
  | ---------------------------
  | Total energy                  :        -460.17202054 Ha      -12521.91778699 eV
  | Total energy, T -> 0          :        -460.17212421 Ha      -12521.92060794 eV  <-- do not rely on this value for anything but (periodic) metals
  | Electronic free energy        :        -460.17222787 Ha      -12521.92342889 eV

  Derived energy quantities:
  | Kinetic energy                :         455.76385810 Ha       12401.96558391 eV
  | Electrostatic energy          :        -860.83527751 Ha      -23424.51972762 eV
  | Energy correction for multipole
  | error in Hartree potential    :           0.00000000 Ha           0.00000000 eV
  | Sum of eigenvalues per atom                           :        -374.45137854 eV
  | Total energy (T->0) per atom                          :        -659.04845305 eV  <-- do not rely on this value for anything but (periodic) metals
  | Electronic free energy per atom                       :        -659.04860152 eV
  Initialize hartree_potential_storage
  Max. number of atoms included in rho_multipole:           19

  End scf initialization - timings             :  max(cpu_time)    wall_clock(cpu1)
  | Time for scf. initialization               :        3.139 s           3.139 s
  | Boundary condition initialization          :        0.000 s           0.000 s
  | Integration                                :        2.315 s           2.314 s
  | Solution of K.-S. eqns.                    :        0.324 s           0.325 s
  | Grid partitioning                          :        0.177 s           0.177 s
  | Preloading free-atom quantities on grid    :        0.013 s           0.014 s
  | Free-atom superposition energy             :        0.098 s           0.097 s
  | Total energy evaluation                    :        0.000 s           0.000 s
------------------------------------------------------------

------------------------------------------------------------
          Begin self-consistency iteration #    1

  Date     :  20150727, Time     :  115351.562
------------------------------------------------------------
  Evaluating new KS density.
  Integration grid: deviation in total charge (<rho> - N_e) =  -1.872060E-09
  Pulay mixing of updated and previous charge densities.

  Evaluating partitioned Hartree potential by multipole expansion.
  | Analytical far-field extrapolation by fixed multipoles:
  | Hartree multipole sum: apparent total charge =  -0.184101E-05
  Summing up the Hartree potential.
  Time summed over all CPUs for potential: real work        4.061 s, elapsed        4.079 s
  | RMS charge density error from multipole expansion :   0.186605E-02

  Integrating Hamiltonian matrix: batch-based integration.
  Time summed over all CPUs for integration: real work       11.656 s, elapsed       11.882 s

  Updating Kohn-Sham eigenvalues, eigenvectors, occupation numbers, and Fermi level.
  Solving generalized eigenproblem
  Updating Kohn-Sham eigenvalues and eigenfunctions.
  Solving real generalised eigenvalue problem by standard LAPACK (fast)
  Determining occupation numbers for Kohn-Sham eigenstates.
  | Chemical potential (Fermi level) in eV                 : -.25778630E+01
  | Error in electron count due to remaining E_F inaccuracy: 0.13196910E-09
  | Maximum occupation number of highest empty state:  0.00E+00

  Writing Kohn-Sham eigenvalues.

  State    Occupation    Eigenvalue [Ha]    Eigenvalue [eV]
      1       2.00000         -19.004633         -517.14239
      2       2.00000         -18.996394         -516.91818
      3       2.00000         -18.986840         -516.65822
      4       2.00000         -18.978549         -516.43259
      5       2.00000         -18.973273         -516.28904
      6       2.00000         -18.961463         -515.96767
      7       2.00000          -1.100927          -29.95774
      8       2.00000          -1.084558          -29.51232
      9       2.00000          -1.069873          -29.11272
     10       2.00000          -1.068385          -29.07224
     11       2.00000          -1.046761          -28.48382
     12       2.00000          -1.046357          -28.47283
     13       2.00000          -0.623467          -16.96539
     14       2.00000          -0.622620          -16.94236
     15       2.00000          -0.619416          -16.85518
     16       2.00000          -0.615205          -16.74057
     17       2.00000          -0.600235          -16.33323
     18       2.00000          -0.581306          -15.81815
     19       2.00000          -0.577891          -15.72522
     20       2.00000          -0.511633          -13.92225
     21       2.00000          -0.480316          -13.07006
     22       2.00000          -0.472388          -12.85434
     23       2.00000          -0.461882          -12.56845
     24       2.00000          -0.459109          -12.49299
     25       2.00000          -0.450283          -12.25282
     26       2.00000          -0.418796          -11.39602
     27       2.00000          -0.409674          -11.14779
     28       2.00000          -0.403656          -10.98404
     29       2.00000          -0.399314          -10.86588
     30       2.00000          -0.385734          -10.49635
     31       1.00000          -0.094735           -2.57786
     32       0.00000          -0.065249           -1.77551
     33       0.00000          -0.056553           -1.53888
     34       0.00000          -0.052135           -1.41867
     35       0.00000          -0.035416           -0.96371
     36       0.00000          -0.006778           -0.18443
     37       0.00000          -0.003971           -0.10805
     38       0.00000           0.017521            0.47678
     39       0.00000           0.031513            0.85752
     40       0.00000           0.050334            1.36965
     41       0.00000           0.053079            1.44435
     42       0.00000           0.055003            1.49671
     43       0.00000           0.062026            1.68781
     44       0.00000           0.073647            2.00405
     45       0.00000           0.087619            2.38424
     46       0.00000           0.093811            2.55272
     47       0.00000           0.101012            2.74868
     48       0.00000           0.104855            2.85326
     49       0.00000           0.106476            2.89735
     50       0.00000           0.121606            3.30905
     51       0.00000           0.124717            3.39373
     52       0.00000           0.131604            3.58112
     53       0.00000           0.134652            3.66405
     54       0.00000           0.143500            3.90482
     55       0.00000           0.145484            3.95882
     56       0.00000           0.153249            4.17012
     57       0.00000           0.159701            4.34569
     58       0.00000           0.167877            4.56817
     59       0.00000           0.171541            4.66786
     60       0.00000           0.177587            4.83240
     61       0.00000           0.198783            5.40916
     62       0.00000           0.206730            5.62542
     63       0.00000           0.220199            5.99193
     64       0.00000           0.222589            6.05695
     65       0.00000           0.240126            6.53417
     66       0.00000           0.241923            6.58306
     67       0.00000           0.266199            7.24365
     68       0.00000           0.279908            7.61669
     69       0.00000           0.287340            7.81892
     70       0.00000           0.289881            7.88807
     71       0.00000           0.305139            8.30325
     72       0.00000           0.309858            8.43167
     73       0.00000           0.331348            9.01644
     74       0.00000           0.347223            9.44842
     75       0.00000           0.358600            9.75800
     76       0.00000           0.368658           10.03169
     77       0.00000           0.379402           10.32406
     78       0.00000           0.381786           10.38892
     79       0.00000           0.396819           10.79800
     80       0.00000           0.397479           10.81595
     81       0.00000           0.411574           11.19949
     82       0.00000           0.426242           11.59864
     83       0.00000           0.436009           11.86440
     84       0.00000           0.440954           11.99898
     85       0.00000           0.452205           12.30513
     86       0.00000           0.453535           12.34130
     87       0.00000           0.467994           12.73476
     88       0.00000           0.479567           13.04969
     89       0.00000           0.493927           13.44045
     90       0.00000           0.505910           13.76651
     91       0.00000           0.525378           14.29628
     92       0.00000           0.528986           14.39445
     93       0.00000           0.539859           14.69031
     94       0.00000           0.555390           15.11292
     95       0.00000           0.569261           15.49038
     96       0.00000           0.579643           15.77288
     97       0.00000           0.609187           16.57682
     98       0.00000           0.624439           16.99185
     99       0.00000           0.628432           17.10050
    100       0.00000           0.663199           18.04656
    101       0.00000           0.686971           18.69343
    102       0.00000           0.715219           19.46209
    103       0.00000           0.734041           19.97428
    104       0.00000           0.756811           20.59387
    105       0.00000           0.771922           21.00507
    106       0.00000           0.775335           21.09795
    107       0.00000           0.800949           21.79493

  Highest occupied state (VBM) at     -2.57786300 eV
  | Occupation number:      1.00000000

  Lowest unoccupied state (CBM) at    -1.77551258 eV
  | Occupation number:      0.00000000

  Overall HOMO-LUMO gap:      0.80235042 eV.

  Total energy components:
  | Sum of eigenvalues            :        -258.91661525 Ha       -7045.47957101 eV
  | XC energy correction          :         -55.37255731 Ha       -1506.76394782 eV
  | XC potential correction       :          70.77894213 Ha        1925.99300884 eV
  | Free-atom electrostatic energy:        -214.03929610 Ha       -5824.30558416 eV
  | Hartree energy correction     :          -2.47385981 Ha         -67.31715050 eV
  | van der Waals energy corr.    :           0.00000000 Ha           0.00000000 eV
  | Entropy correction            :          -0.00010367 Ha          -0.00282095 eV
  | ---------------------------
  | Total energy                  :        -460.02338634 Ha      -12517.87324465 eV
  | Total energy, T -> 0          :        -460.02349001 Ha      -12517.87606560 eV  <-- do not rely on this value for anything but (periodic) metals
  | Electronic free energy        :        -460.02359367 Ha      -12517.87888655 eV

  Derived energy quantities:
  | Kinetic energy                :         457.41955631 Ha       12447.01942471 eV
  | Electrostatic energy          :        -862.07038534 Ha      -23458.12872154 eV
  | Energy correction for multipole
  | error in Hartree potential    :           0.00024772 Ha           0.00674075 eV
  | Sum of eigenvalues per atom                           :        -370.81471426 eV
  | Total energy (T->0) per atom                          :        -658.83558240 eV  <-- do not rely on this value for anything but (periodic) metals
  | Electronic free energy per atom                       :        -658.83573087 eV

  Self-consistency convergence accuracy:
  | Change of charge density      : 0.7078E+00
  | Change of sum of eigenvalues  : 0.6910E+02 eV
  | Change of total energy        : 0.4045E+01 eV

  End self-consistency iteration #     1       :  max(cpu_time)    wall_clock(cpu1)
  | Time for this iteration                    :        3.124 s           3.124 s
  | Charge density update                      :        1.021 s           1.021 s
  | Density mixing                             :        0.004 s           0.004 s
  | Hartree multipole update                   :        0.007 s           0.007 s
  | Hartree multipole summation                :        0.510 s           0.511 s
  | Integration                                :        1.488 s           1.488 s
  | Solution of K.-S. eqns.                    :        0.091 s           0.091 s
  | Total energy evaluation                    :        0.000 s           0.001 s
------------------------------------------------------------

------------------------------------------------------------
          Begin self-consistency iteration #    2

  Date     :  20150727, Time     :  115354.686
------------------------------------------------------------
  Evaluating new KS density.
  Integration grid: deviation in total charge (<rho> - N_e) =   1.319904E-10
  Pulay mixing of updated and previous charge densities.

  Evaluating partitioned Hartree potential by multipole expansion.
  | Analytical far-field extrapolation by fixed multipoles:
  | Hartree multipole sum: apparent total charge =  -0.549063E-05
  Summing up the Hartree potential.
  Time summed over all CPUs for potential: real work        4.060 s, elapsed        4.079 s
  | RMS charge density error from multipole expansion :   0.764931E-02

  Integrating Hamiltonian matrix: batch-based integration.
  Time summed over all CPUs for integration: real work       11.627 s, elapsed       11.855 s

  Updating Kohn-Sham eigenvalues, eigenvectors, occupation numbers, and Fermi level.
  Solving generalized eigenproblem
  Updating Kohn-Sham eigenvalues and eigenfunctions.
  Solving real generalised eigenvalue problem by standard LAPACK (fast)
  Determining occupation numbers for Kohn-Sham eigenstates.
  | Chemical potential (Fermi level) in eV                 : -.19736241E+01
  | Error in electron count due to remaining E_F inaccuracy: -.11645298E-08
  | Maximum occupation number of highest empty state:  0.00E+00

  Highest occupied state (VBM) at     -7.53543739 eV
  | Occupation number:      2.00000000

  Lowest unoccupied state (CBM) at    -1.97362408 eV
  | Occupation number:      1.00000000

  Overall HOMO-LUMO gap:      5.56181331 eV.

  Total energy components:
  | Sum of eigenvalues            :        -252.71943253 Ha       -6876.84564910 eV
  | XC energy correction          :         -56.07070271 Ha       -1525.76145065 eV
  | XC potential correction       :          71.68895357 Ha        1950.75567998 eV
  | Free-atom electrostatic energy:        -214.03929610 Ha       -5824.30558416 eV
  | Hartree energy correction     :          -8.71186394 Ha        -237.06187938 eV
  | van der Waals energy corr.    :           0.00000000 Ha           0.00000000 eV
  | Entropy correction            :          -0.00010367 Ha          -0.00282095 eV
  | ---------------------------
  | Total energy                  :        -459.85234170 Ha      -12513.21888332 eV
  | Total energy, T -> 0          :        -459.85244537 Ha      -12513.22170426 eV  <-- do not rely on this value for anything but (periodic) metals
  | Electronic free energy        :        -459.85254904 Ha      -12513.22452521 eV

  Derived energy quantities:
  | Kinetic energy                :         460.93387532 Ha       12542.64891036 eV
  | Electrostatic energy          :        -864.71551431 Ha      -23530.10634302 eV
  | Energy correction for multipole
  | error in Hartree potential    :          -0.00010579 Ha          -0.00287871 eV
  | Sum of eigenvalues per atom                           :        -361.93924469 eV
  | Total energy (T->0) per atom                          :        -658.59061601 eV  <-- do not rely on this value for anything but (periodic) metals
  | Electronic free energy per atom                       :        -658.59076448 eV

  Self-consistency convergence accuracy:
  | Change of charge density      : 0.5387E+00
  | Change of sum of eigenvalues  : 0.1686E+03 eV
  | Change of total energy        : 0.4654E+01 eV

  End self-consistency iteration #     2       :  max(cpu_time)    wall_clock(cpu1)
  | Time for this iteration                    :        3.118 s           3.118 s
  | Charge density update                      :        1.017 s           1.017 s
  | Density mixing                             :        0.007 s           0.007 s
  | Hartree multipole update                   :        0.007 s           0.007 s
  | Hartree multipole summation                :        0.511 s           0.511 s
  | Integration                                :        1.484 s           1.484 s
  | Solution of K.-S. eqns.                    :        0.091 s           0.091 s
  | Total energy evaluation                    :        0.000 s           0.001 s
------------------------------------------------------------

------------------------------------------------------------
          Begin self-consistency iteration #    3

  Date     :  20150727, Time     :  115357.804
------------------------------------------------------------
  Evaluating new KS density.
  Integration grid: deviation in total charge (<rho> - N_e) =  -1.164494E-09
  Pulay mixing of updated and previous charge densities.

  Evaluating partitioned Hartree potential by multipole expansion.
  | Analytical far-field extrapolation by fixed multipoles:
  | Hartree multipole sum: apparent total charge =  -0.624384E-05
  Summing up the Hartree potential.
  Time summed over all CPUs for potential: real work        4.061 s, elapsed        4.080 s
  | RMS charge density error from multipole expansion :   0.156684E-01

  Integrating Hamiltonian matrix: batch-based integration.
  Time summed over all CPUs for integration: real work       11.628 s, elapsed       11.880 s

  Updating Kohn-Sham eigenvalues, eigenvectors, occupation numbers, and Fermi level.
  Solving generalized eigenproblem
  Updating Kohn-Sham eigenvalues and eigenfunctions.
  Solving real generalised eigenvalue problem by standard LAPACK (fast)
  Determining occupation numbers for Kohn-Sham eigenstates.
  | Chemical potential (Fermi level) in eV                 : -.19047364E+01
  | Error in electron count due to remaining E_F inaccuracy: 0.47506603E-08
  | Maximum occupation number of highest empty state:  0.00E+00

  Highest occupied state (VBM) at     -1.90473644 eV
  | Occupation number:      1.00000000

  Lowest unoccupied state (CBM) at    -1.19853208 eV
  | Occupation number:      0.00000000

  Overall HOMO-LUMO gap:      0.70620436 eV.

  Total energy components:
  | Sum of eigenvalues            :        -253.13500714 Ha       -6888.15400972 eV
  | XC energy correction          :         -56.06007711 Ha       -1525.47231320 eV
  | XC potential correction       :          71.66470730 Ha        1950.09590529 eV
  | Free-atom electrostatic energy:        -214.03929610 Ha       -5824.30558416 eV
  | Hartree energy correction     :          -8.28145551 Ha        -225.34987004 eV
  | van der Waals energy corr.    :           0.00000000 Ha           0.00000000 eV
  | Entropy correction            :          -0.00010367 Ha          -0.00282095 eV
  | ---------------------------
  | Total energy                  :        -459.85112855 Ha      -12513.18587184 eV
  | Total energy, T -> 0          :        -459.85123222 Ha      -12513.18869279 eV  <-- do not rely on this value for anything but (periodic) metals
  | Electronic free energy        :        -459.85133589 Ha      -12513.19151374 eV

  Derived energy quantities:
  | Kinetic energy                :         458.65670470 Ha       12480.68394509 eV
  | Electrostatic energy          :        -862.44775615 Ha      -23468.39750373 eV
  | Energy correction for multipole
  | error in Hartree potential    :          -0.00601100 Ha          -0.16356751 eV
  | Sum of eigenvalues per atom                           :        -362.53442156 eV
  | Total energy (T->0) per atom                          :        -658.58887857 eV  <-- do not rely on this value for anything but (periodic) metals
  | Electronic free energy per atom                       :        -658.58902704 eV

  Self-consistency convergence accuracy:
  | Change of charge density      : 0.2588E+00
  | Change of sum of eigenvalues  : -.1131E+02 eV
  | Change of total energy        : 0.3301E-01 eV

  End self-consistency iteration #     3       :  max(cpu_time)    wall_clock(cpu1)
  | Time for this iteration                    :        3.122 s           3.121 s
  | Charge density update                      :        1.016 s           1.015 s
  | Density mixing                             :        0.008 s           0.009 s
  | Hartree multipole update                   :        0.006 s           0.006 s
  | Hartree multipole summation                :        0.511 s           0.511 s
  | Integration                                :        1.488 s           1.488 s
  | Solution of K.-S. eqns.                    :        0.091 s           0.091 s
  | Total energy evaluation                    :        0.000 s           0.000 s
------------------------------------------------------------

------------------------------------------------------------
          Begin self-consistency iteration #    4

  Date     :  20150727, Time     :  115400.925
------------------------------------------------------------
  Evaluating new KS density.
  Integration grid: deviation in total charge (<rho> - N_e) =   4.750675E-09
  Pulay mixing of updated and previous charge densities.

  Evaluating partitioned Hartree potential by multipole expansion.
  | Analytical far-field extrapolation by fixed multipoles:
  | Hartree multipole sum: apparent total charge =  -0.733002E-05
  Summing up the Hartree potential.
  Time summed over all CPUs for potential: real work        4.088 s, elapsed        4.244 s
  | RMS charge density error from multipole expansion :   0.190132E-01

  Integrating Hamiltonian matrix: batch-based integration.
  Time summed over all CPUs for integration: real work       11.627 s, elapsed       11.856 s

  Updating Kohn-Sham eigenvalues, eigenvectors, occupation numbers, and Fermi level.
  Solving generalized eigenproblem
  Updating Kohn-Sham eigenvalues and eigenfunctions.
  Solving real generalised eigenvalue problem by standard LAPACK (fast)
  Determining occupation numbers for Kohn-Sham eigenstates.
  | Chemical potential (Fermi level) in eV                 : -.17754295E+01
  | Error in electron count due to remaining E_F inaccuracy: -.42632564E-13
  | Maximum occupation number of highest empty state:  0.00E+00

  Highest occupied state (VBM) at     -6.82792777 eV
  | Occupation number:      2.00000000

  Lowest unoccupied state (CBM) at    -1.77542952 eV
  | Occupation number:      1.00000000

  Overall HOMO-LUMO gap:      5.05249825 eV.

  Total energy components:
  | Sum of eigenvalues            :        -251.88586175 Ha       -6854.16303432 eV
  | XC energy correction          :         -56.22613434 Ha       -1529.99096051 eV
  | XC potential correction       :          71.87878923 Ha        1955.92137125 eV
  | Free-atom electrostatic energy:        -214.03929610 Ha       -5824.30558416 eV
  | Hartree energy correction     :          -9.57141222 Ha        -260.45137802 eV
  | van der Waals energy corr.    :           0.00000000 Ha           0.00000000 eV
  | Entropy correction            :          -0.00010367 Ha          -0.00282095 eV
  | ---------------------------
  | Total energy                  :        -459.84391517 Ha      -12512.98958576 eV
  | Total energy, T -> 0          :        -459.84401884 Ha      -12512.99240671 eV  <-- do not rely on this value for anything but (periodic) metals
  | Electronic free energy        :        -459.84412251 Ha      -12512.99522766 eV

  Derived energy quantities:
  | Kinetic energy                :         458.81988675 Ha       12485.12435449 eV
  | Electrostatic energy          :        -862.43766758 Ha      -23468.12297974 eV
  | Energy correction for multipole
  | error in Hartree potential    :          -0.00771201 Ha          -0.20985442 eV
  | Sum of eigenvalues per atom                           :        -360.74542286 eV
  | Total energy (T->0) per atom                          :        -658.57854772 eV  <-- do not rely on this value for anything but (periodic) metals
  | Electronic free energy per atom                       :        -658.57869619 eV

  Self-consistency convergence accuracy:
  | Change of charge density      : 0.1223E+00
  | Change of sum of eigenvalues  : 0.3399E+02 eV
  | Change of total energy        : 0.1963E+00 eV

  End self-consistency iteration #     4       :  max(cpu_time)    wall_clock(cpu1)
  | Time for this iteration                    :        3.137 s           3.137 s
  | Charge density update                      :        1.012 s           1.012 s
  | Density mixing                             :        0.010 s           0.011 s
  | Hartree multipole update                   :        0.006 s           0.006 s
  | Hartree multipole summation                :        0.531 s           0.532 s
  | Integration                                :        1.485 s           1.484 s
  | Solution of K.-S. eqns.                    :        0.091 s           0.092 s
  | Total energy evaluation                    :        0.000 s           0.000 s
------------------------------------------------------------

------------------------------------------------------------
          Begin self-consistency iteration #    5

  Date     :  20150727, Time     :  115404.062
------------------------------------------------------------
  Evaluating new KS density.
  Integration grid: deviation in total charge (<rho> - N_e) =  -2.842171E-14
  Pulay mixing of updated and previous charge densities.

  Evaluating partitioned Hartree potential by multipole expansion.
  | Analytical far-field extrapolation by fixed multipoles:
  | Hartree multipole sum: apparent total charge =  -0.760215E-05
  Summing up the Hartree potential.
  Time summed over all CPUs for potential: real work        4.059 s, elapsed        4.076 s
  | RMS charge density error from multipole expansion :   0.199123E-01

  Integrating Hamiltonian matrix: batch-based integration.
  Time summed over all CPUs for integration: real work       11.626 s, elapsed       11.865 s

  Updating Kohn-Sham eigenvalues, eigenvectors, occupation numbers, and Fermi level.
  Solving generalized eigenproblem
  Updating Kohn-Sham eigenvalues and eigenfunctions.
  Solving real generalised eigenvalue problem by standard LAPACK (fast)
  Determining occupation numbers for Kohn-Sham eigenstates.
  | Chemical potential (Fermi level) in eV                 : -.17620718E+01
  | Error in electron count due to remaining E_F inaccuracy: 0.46978954E-09
  | Maximum occupation number of highest empty state:  0.00E+00

  Highest occupied state (VBM) at     -1.76207177 eV
  | Occupation number:      1.00000000

  Lowest unoccupied state (CBM) at    -1.07435131 eV
  | Occupation number:      0.00000000

  Overall HOMO-LUMO gap:      0.68772046 eV.

  Total energy components:
  | Sum of eigenvalues            :        -251.66737901 Ha       -6848.21781622 eV
  | XC energy correction          :         -56.25763320 Ha       -1530.84808816 eV
  | XC potential correction       :          71.91891787 Ha        1957.01332697 eV
  | Free-atom electrostatic energy:        -214.03929610 Ha       -5824.30558416 eV
  | Hartree energy correction     :          -9.79806901 Ha        -266.61902322 eV
  | van der Waals energy corr.    :           0.00000000 Ha           0.00000000 eV
  | Entropy correction            :          -0.00010367 Ha          -0.00282095 eV
  | ---------------------------
  | Total energy                  :        -459.84345945 Ha      -12512.97718479 eV
  | Total energy, T -> 0          :        -459.84356311 Ha      -12512.98000574 eV  <-- do not rely on this value for anything but (periodic) metals
  | Electronic free energy        :        -459.84366678 Ha      -12512.98282668 eV

  Derived energy quantities:
  | Kinetic energy                :         458.86510933 Ha       12486.35492353 eV
  | Electrostatic energy          :        -862.45093557 Ha      -23468.48402017 eV
  | Energy correction for multipole
  | error in Hartree potential    :          -0.00840359 Ha          -0.22867332 eV
  | Sum of eigenvalues per atom                           :        -360.43251664 eV
  | Total energy (T->0) per atom                          :        -658.57789504 eV  <-- do not rely on this value for anything but (periodic) metals
  | Electronic free energy per atom                       :        -658.57804351 eV

  Self-consistency convergence accuracy:
  | Change of charge density      : 0.3691E-01
  | Change of sum of eigenvalues  : 0.5945E+01 eV
  | Change of total energy        : 0.1240E-01 eV

  End self-consistency iteration #     5       :  max(cpu_time)    wall_clock(cpu1)
  | Time for this iteration                    :        3.118 s           3.118 s
  | Charge density update                      :        1.011 s           1.012 s
  | Density mixing                             :        0.012 s           0.012 s
  | Hartree multipole update                   :        0.007 s           0.006 s
  | Hartree multipole summation                :        0.510 s           0.511 s
  | Integration                                :        1.486 s           1.485 s
  | Solution of K.-S. eqns.                    :        0.091 s           0.091 s
  | Total energy evaluation                    :        0.001 s           0.000 s
------------------------------------------------------------

------------------------------------------------------------
          Begin self-consistency iteration #    6

  Date     :  20150727, Time     :  115407.180
------------------------------------------------------------
  Evaluating new KS density.
  Integration grid: deviation in total charge (<rho> - N_e) =   4.697966E-10
  Pulay mixing of updated and previous charge densities.

  Evaluating partitioned Hartree potential by multipole expansion.
  | Analytical far-field extrapolation by fixed multipoles:
  | Hartree multipole sum: apparent total charge =  -0.763923E-05
  Summing up the Hartree potential.
  Time summed over all CPUs for potential: real work        4.059 s, elapsed        4.077 s
  | RMS charge density error from multipole expansion :   0.202370E-01

  Integrating Hamiltonian matrix: batch-based integration.
  Time summed over all CPUs for integration: real work       11.625 s, elapsed       11.861 s

  Updating Kohn-Sham eigenvalues, eigenvectors, occupation numbers, and Fermi level.
  Solving generalized eigenproblem
  Updating Kohn-Sham eigenvalues and eigenfunctions.
  Solving real generalised eigenvalue problem by standard LAPACK (fast)
  Determining occupation numbers for Kohn-Sham eigenstates.
  | Chemical potential (Fermi level) in eV                 : -.17626601E+01
  | Error in electron count due to remaining E_F inaccuracy: 0.00000000E+00
  | Maximum occupation number of highest empty state:  0.00E+00

  Highest occupied state (VBM) at     -1.76266009 eV
  | Occupation number:      1.00000000

  Lowest unoccupied state (CBM) at    -1.76266009 eV
  | Occupation number:      1.00000000

  Overall HOMO-LUMO gap:      0.00000000 eV.

  Total energy components:
  | Sum of eigenvalues            :        -251.65279699 Ha       -6847.82101935 eV
  | XC energy correction          :         -56.26198761 Ha       -1530.96657764 eV
  | XC potential correction       :          71.92417910 Ha        1957.15649229 eV
  | Free-atom electrostatic energy:        -214.03929610 Ha       -5824.30558416 eV
  | Hartree energy correction     :          -9.81359887 Ha        -267.04161210 eV
  | van der Waals energy corr.    :           0.00000000 Ha           0.00000000 eV
  | Entropy correction            :          -0.00010367 Ha          -0.00282095 eV
  | ---------------------------
  | Total energy                  :        -459.84350046 Ha      -12512.97830098 eV
  | Total energy, T -> 0          :        -459.84360413 Ha      -12512.98112192 eV  <-- do not rely on this value for anything but (periodic) metals
  | Electronic free energy        :        -459.84370780 Ha      -12512.98394287 eV

  Derived energy quantities:
  | Kinetic energy                :         458.83975482 Ha       12485.66499234 eV
  | Electrostatic energy          :        -862.42126767 Ha      -23467.67671568 eV
  | Energy correction for multipole
  | error in Hartree potential    :          -0.00868576 Ha          -0.23635155 eV
  | Sum of eigenvalues per atom                           :        -360.41163260 eV
  | Total energy (T->0) per atom                          :        -658.57795379 eV  <-- do not rely on this value for anything but (periodic) metals
  | Electronic free energy per atom                       :        -658.57810226 eV

  Self-consistency convergence accuracy:
  | Change of charge density      : 0.8023E-02
  | Change of sum of eigenvalues  : 0.3968E+00 eV
  | Change of total energy        : -.1116E-02 eV

  End self-consistency iteration #     6       :  max(cpu_time)    wall_clock(cpu1)
  | Time for this iteration                    :        3.122 s           3.122 s
  | Charge density update                      :        1.014 s           1.014 s
  | Density mixing                             :        0.014 s           0.014 s
  | Hartree multipole update                   :        0.006 s           0.006 s
  | Hartree multipole summation                :        0.511 s           0.511 s
  | Integration                                :        1.485 s           1.485 s
  | Solution of K.-S. eqns.                    :        0.092 s           0.091 s
  | Total energy evaluation                    :        0.000 s           0.001 s
------------------------------------------------------------

------------------------------------------------------------
          Begin self-consistency iteration #    7

  Date     :  20150727, Time     :  115410.302
------------------------------------------------------------
  Evaluating new KS density.
  Integration grid: deviation in total charge (<rho> - N_e) =   1.421085E-14
  Pulay mixing of updated and previous charge densities.

  Evaluating partitioned Hartree potential by multipole expansion.
  | Analytical far-field extrapolation by fixed multipoles:
  | Hartree multipole sum: apparent total charge =  -0.760330E-05
  Summing up the Hartree potential.
  Time summed over all CPUs for potential: real work        4.059 s, elapsed        4.076 s
  | RMS charge density error from multipole expansion :   0.202349E-01

  Integrating Hamiltonian matrix: batch-based integration.
  Time summed over all CPUs for integration: real work       11.625 s, elapsed       11.864 s

  Updating Kohn-Sham eigenvalues, eigenvectors, occupation numbers, and Fermi level.
  Solving generalized eigenproblem
  Updating Kohn-Sham eigenvalues and eigenfunctions.
  Solving real generalised eigenvalue problem by standard LAPACK (fast)
  Determining occupation numbers for Kohn-Sham eigenstates.
  | Chemical potential (Fermi level) in eV                 : -.17791577E+01
  | Error in electron count due to remaining E_F inaccuracy: 0.10827250E-09
  | Maximum occupation number of highest empty state:  0.00E+00

  Highest occupied state (VBM) at     -1.77915774 eV
  | Occupation number:      1.00000000

  Lowest unoccupied state (CBM) at    -1.08417196 eV
  | Occupation number:      0.00000000

  Overall HOMO-LUMO gap:      0.69498578 eV.

  Total energy components:
  | Sum of eigenvalues            :        -251.73492669 Ha       -6850.05588217 eV
  | XC energy correction          :         -56.25294098 Ha       -1530.72040616 eV
  | XC potential correction       :          71.91205290 Ha        1956.82652159 eV
  | Free-atom electrostatic energy:        -214.03929610 Ha       -5824.30558416 eV
  | Hartree energy correction     :          -9.72834683 Ha        -264.72178602 eV
  | van der Waals energy corr.    :           0.00000000 Ha           0.00000000 eV
  | Entropy correction            :          -0.00010367 Ha          -0.00282095 eV
  | ---------------------------
  | Total energy                  :        -459.84345769 Ha      -12512.97713692 eV
  | Total energy, T -> 0          :        -459.84356135 Ha      -12512.97995786 eV  <-- do not rely on this value for anything but (periodic) metals
  | Electronic free energy        :        -459.84366502 Ha      -12512.98277881 eV

  Derived energy quantities:
  | Kinetic energy                :         458.87875111 Ha       12486.72613538 eV
  | Electrostatic energy          :        -862.46926782 Ha      -23468.98286614 eV
  | Energy correction for multipole
  | error in Hartree potential    :          -0.00885406 Ha          -0.24093125 eV
  | Sum of eigenvalues per atom                           :        -360.52925696 eV
  | Total energy (T->0) per atom                          :        -658.57789252 eV  <-- do not rely on this value for anything but (periodic) metals
  | Electronic free energy per atom                       :        -658.57804099 eV

  Self-consistency convergence accuracy:
  | Change of charge density      : 0.7242E-02
  | Change of sum of eigenvalues  : -.2235E+01 eV
  | Change of total energy        : 0.1164E-02 eV

  End self-consistency iteration #     7       :  max(cpu_time)    wall_clock(cpu1)
  | Time for this iteration                    :        3.122 s           3.121 s
  | Charge density update                      :        1.011 s           1.011 s
  | Density mixing                             :        0.016 s           0.015 s
  | Hartree multipole update                   :        0.006 s           0.007 s
  | Hartree multipole summation                :        0.511 s           0.510 s
  | Integration                                :        1.486 s           1.486 s
  | Solution of K.-S. eqns.                    :        0.091 s           0.091 s
  | Total energy evaluation                    :        0.000 s           0.000 s
------------------------------------------------------------

------------------------------------------------------------
          Begin self-consistency iteration #    8

  Date     :  20150727, Time     :  115413.423
------------------------------------------------------------
  Evaluating new KS density.
  Integration grid: deviation in total charge (<rho> - N_e) =   1.082938E-10
  Pulay mixing of updated and previous charge densities.

  Evaluating partitioned Hartree potential by multipole expansion.
  | Analytical far-field extrapolation by fixed multipoles:
  | Hartree multipole sum: apparent total charge =  -0.760520E-05
  Summing up the Hartree potential.
  Time summed over all CPUs for potential: real work        4.060 s, elapsed        4.077 s
  | RMS charge density error from multipole expansion :   0.202578E-01

  Integrating Hamiltonian matrix: batch-based integration.
  Time summed over all CPUs for integration: real work       11.620 s, elapsed       11.845 s

  Updating Kohn-Sham eigenvalues, eigenvectors, occupation numbers, and Fermi level.
  Solving generalized eigenproblem
  Updating Kohn-Sham eigenvalues and eigenfunctions.
  Solving real generalised eigenvalue problem by standard LAPACK (fast)
  Determining occupation numbers for Kohn-Sham eigenstates.
  | Chemical potential (Fermi level) in eV                 : -.17829549E+01
  | Error in electron count due to remaining E_F inaccuracy: -.44764192E-11
  | Maximum occupation number of highest empty state:  0.00E+00

  Highest occupied state (VBM) at     -6.71460013 eV
  | Occupation number:      2.00000000

  Lowest unoccupied state (CBM) at    -1.78295488 eV
  | Occupation number:      1.00000000

  Overall HOMO-LUMO gap:      4.93164525 eV.

  Total energy components:
  | Sum of eigenvalues            :        -251.76098295 Ha       -6850.76490924 eV
  | XC energy correction          :         -56.25078862 Ha       -1530.66183759 eV
  | XC potential correction       :          71.90913137 Ha        1956.74702278 eV
  | Free-atom electrostatic energy:        -214.03929610 Ha       -5824.30558416 eV
  | Hartree energy correction     :          -9.70151682 Ha        -263.99170430 eV
  | van der Waals energy corr.    :           0.00000000 Ha           0.00000000 eV
  | Entropy correction            :          -0.00010367 Ha          -0.00282095 eV
  | ---------------------------
  | Total energy                  :        -459.84345311 Ha      -12512.97701252 eV
  | Total energy, T -> 0          :        -459.84355678 Ha      -12512.97983347 eV  <-- do not rely on this value for anything but (periodic) metals
  | Electronic free energy        :        -459.84366045 Ha      -12512.98265441 eV

  Derived energy quantities:
  | Kinetic energy                :         458.88894655 Ha       12487.00356739 eV
  | Electrostatic energy          :        -862.48161104 Ha      -23469.31874231 eV
  | Energy correction for multipole
  | error in Hartree potential    :          -0.00891937 Ha          -0.24270851 eV
  | Sum of eigenvalues per atom                           :        -360.56657417 eV
  | Total energy (T->0) per atom                          :        -658.57788597 eV  <-- do not rely on this value for anything but (periodic) metals
  | Electronic free energy per atom                       :        -658.57803444 eV

  Self-consistency convergence accuracy:
  | Change of charge density      : 0.2378E-02
  | Change of sum of eigenvalues  : -.7090E+00 eV
  | Change of total energy        : 0.1244E-03 eV

  End self-consistency iteration #     8       :  max(cpu_time)    wall_clock(cpu1)
  | Time for this iteration                    :        3.120 s           3.119 s
  | Charge density update                      :        1.010 s           1.010 s
  | Density mixing                             :        0.017 s           0.017 s
  | Hartree multipole update                   :        0.007 s           0.007 s
  | Hartree multipole summation                :        0.510 s           0.510 s
[...]
   Hellmann-Feynman + Multipole  : -.640550E+00 -.142831E+00 0.141305E+01
   Pulay + GGA                   : -.767801E-01 -.569292E-01 0.981261E-01
   Van der Waals               : -.124159E-03 -.534906E-02 -.456974E-02
   ----------------------------------------------------------------
   Total forces(  16)            : -.717454E+00 -.205109E+00 0.150660E+01
  atom #   17
   Hellmann-Feynman + Multipole  : 0.134268E+01 -.158631E+02 0.170085E+01
   Pulay + GGA                   : -.114750E+00 0.157213E+02 -.332671E+01
   Van der Waals               : 0.420502E-02 -.736535E-02 -.655855E-02
   ----------------------------------------------------------------
   Total forces(  17)            : 0.123214E+01 -.149154E+00 -.163242E+01
  atom #   18
   Hellmann-Feynman + Multipole  : -.302939E+00 0.653271E+00 0.261770E+00
   Pulay + GGA                   : -.808453E-01 0.958566E-01 0.933269E-01
   Van der Waals               : 0.269445E-02 -.280005E-02 -.210276E-02
   ----------------------------------------------------------------
   Total forces(  18)            : -.381090E+00 0.746327E+00 0.352994E+00
  atom #   19
   Hellmann-Feynman + Multipole  : -.855761E+00 -.727714E+00 0.142873E+01
   Pulay + GGA                   : 0.546036E-01 0.748205E-01 -.129433E+00
   Van der Waals               : 0.201330E-03 -.431366E-02 -.190340E-02
   ----------------------------------------------------------------
   Total forces(  19)            : -.800956E+00 -.657207E+00 0.129740E+01
  Timings for vdw_correction_hirshfeld (Tkatchenko-Scheffler 2009):
  | CPU time:        8.460 s, Wall clock time:        8.460 s.
  Removing unitary transformations (pure translations, rotations) from forces on atoms.
  Atomic forces before filtering:
  | Net force on center of mass :  0.351878E-02 0.168053E-02 -.120595E-01 eV/A
  | Net torque on center of mass:  0.157358E-01 0.324400E-02 -.143194E-01 eV
  Atomic forces after filtering:
  | Net force on center of mass :  -.981234E-15 0.446015E-15 0.713624E-15 eV/A
  | Net torque on center of mass:  0.415397E-14 0.000000E+00 0.113290E-14 eV
 
  Energy and forces in a compact form:
  | Total energy uncorrected      :         -0.125131066668908E+05 eV
  | Total energy corrected        :         -0.125131094878388E+05 eV  <-- do not rely on this value for anything but (periodic) metals
  | Electronic free energy        :         -0.125131123087867E+05 eV
  Total atomic forces (unitary forces cleaned) [eV/Ang]:
  |   1         -0.109956500569774E+01          0.123038308706898E+01         -0.120702536222890E+01
  |   2          0.466285629668860E+00         -0.107997428088379E+01          0.374519472547565E+00
  |   3          0.504533634661875E+00         -0.991773352071583E-01         -0.528496333770191E-01
  |   4         -0.532915975375976E-03         -0.112981976740679E+00          0.450815889090849E+00
  |   5         -0.253330888527479E+00         -0.159591313973747E+01         -0.107665321873324E+01
  |   6         -0.120904625081477E+00          0.105380283939118E+01          0.112351775200957E+01
  |   7          0.205165586987793E+00          0.495853748199454E+00          0.299873226255311E+00
  |   8          0.451693523469464E+00         -0.507250608785591E+00          0.293101772821754E+01
  |   9         -0.481623376200769E-01          0.620594966090614E-02         -0.591852908328556E-01
  |  10         -0.336221428530547E+00          0.458284847912834E+00         -0.281073674524194E+01
  |  11          0.184418592139986E+01         -0.497631344626132E+00          0.814109626709748E+00
  |  12         -0.263210684376536E+00         -0.400997673023502E-01         -0.470122631176230E+00
  |  13         -0.141846804765028E+01          0.747147731886068E+00         -0.334813894585468E+00
  |  14          0.818034271927001E+00          0.179727423982986E+00         -0.198041574434808E+01
  |  15         -0.801420064644685E-01          0.265871636497372E-01          0.472318155505345E+00
  |  16         -0.717776442181078E+00         -0.204728917673277E+00          0.150708006921485E+01
  |  17          0.123163904620618E+01         -0.149203693666340E+00         -0.163215548885096E+01
  |  18         -0.381696393445902E+00          0.746292904887582E+00          0.353130368749050E+00
  |  19         -0.801526838770077E+00         -0.657324632016934E+00          0.129757572107486E+01
 
  ------------------------------------ 
  Start decomposition of the XC Energy 
  ------------------------------------ 
  Hartree-Fock part   :          0.000000000 Ha              0.000000000 eV
  ------------------------------------ 
  X Energy            :        -54.260628083 Ha          -1476.506813987 eV
  C Energy GGA        :         -1.990135877 Ha            -54.154352544 eV
  Total XC Energy     :        -56.250763960 Ha          -1530.661166530 eV
  LDA X and C from self-consistent density 
  X Energy LDA        :        -48.918309850 Ha          -1331.134938432 eV
  C Energy LDA        :         -4.001992768 Ha           -108.899763984 eV
  ------------------------------------ 
  End decomposition of the XC Energy 
  ------------------------------------ 
  Performing Hirshfeld analysis of fragment charges and moments.
  ----------------------------------------------------------------------
  | Atom     1: O
  |   Hirshfeld charge        :     -0.15586774
  |   Free atom volume        :     23.95238533
  |   Hirshfeld volume        :     21.10709375
  |   Hirshfeld dipole vector :      0.00725815       0.02805671       0.02197861
  |   Hirshfeld dipole moment :      0.03637195
  |   Hirshfeld second moments:      0.08418713      -0.00736652      -0.00685959
  |                                 -0.00736652       0.05246916      -0.02302823
  |                                 -0.00685959      -0.02302823       0.06679095
  ----------------------------------------------------------------------
  | Atom     2: H
  |   Hirshfeld charge        :      0.11688931
  |   Free atom volume        :     10.44207651
  |   Hirshfeld volume        :      8.83969249
  |   Hirshfeld dipole vector :     -0.00468974       0.01350516      -0.00544714
  |   Hirshfeld dipole moment :      0.01529883
  |   Hirshfeld second moments:      0.06085938       0.02285066      -0.00398508
  |                                  0.02285066       0.03667018       0.01385366
  |                                 -0.00398508       0.01385366       0.07707263
  ----------------------------------------------------------------------
  | Atom     3: H
  |   Hirshfeld charge        :      0.10575972
  |   Free atom volume        :     10.44207651
  |   Hirshfeld volume        :      8.79556189
  |   Hirshfeld dipole vector :      0.01797672       0.00458624       0.00485269
  |   Hirshfeld dipole moment :      0.01917667
  |   Hirshfeld second moments:      0.02668343      -0.02042801      -0.00197984
  |                                 -0.02042801       0.07161238       0.00351846
  |                                 -0.00197984       0.00351846       0.07568009
  ----------------------------------------------------------------------
  | Atom     4: H
  |   Hirshfeld charge        :      0.10735913
  |   Free atom volume        :     10.44207651
  |   Hirshfeld volume        :      8.79026748
  |   Hirshfeld dipole vector :     -0.01508966      -0.00014501       0.01865373
  |   Hirshfeld dipole moment :      0.02399335
  |   Hirshfeld second moments:      0.07749133       0.00776936       0.01036326
  |                                  0.00776936       0.07564646       0.00554412
  |                                  0.01036326       0.00554412       0.02303656
  ----------------------------------------------------------------------
  | Atom     5: O
  |   Hirshfeld charge        :     -0.22451238
  |   Free atom volume        :     23.95238533
  |   Hirshfeld volume        :     21.99821714
  |   Hirshfeld dipole vector :     -0.02816340       0.02281175      -0.00965481
  |   Hirshfeld dipole moment :      0.03750691
  |   Hirshfeld second moments:      0.02722578       0.05129550      -0.01438228
  |                                  0.05129550       0.03629068       0.01722213
  |                                 -0.01438228       0.01722213       0.05349990
  ----------------------------------------------------------------------
  | Atom     6: H
  |   Hirshfeld charge        :      0.11176468
  |   Free atom volume        :     10.44207651
  |   Hirshfeld volume        :     10.01563187
  |   Hirshfeld dipole vector :      0.01686562       0.05892073       0.02705097
  |   Hirshfeld dipole moment :      0.06699147
  |   Hirshfeld second moments:      0.04294920       0.02227014      -0.01434006
  |                                  0.02227014       0.04063372      -0.00982336
  |                                 -0.01434006      -0.00982336       0.04388172
  ----------------------------------------------------------------------
  | Atom     7: H
  |   Hirshfeld charge        :      0.13118413
  |   Free atom volume        :     10.44207651
  |   Hirshfeld volume        :      9.94362555
  |   Hirshfeld dipole vector :     -0.06761980      -0.04365279       0.00991503
  |   Hirshfeld dipole moment :      0.08109446
  |   Hirshfeld second moments:      0.03494871       0.01511307       0.00085537
  |                                  0.01511307       0.05454687       0.01165350
  |                                  0.00085537       0.01165350       0.06402547
  ----------------------------------------------------------------------
  | Atom     8: O
  |   Hirshfeld charge        :     -0.20331652
  |   Free atom volume        :     23.95238533
  |   Hirshfeld volume        :     22.02264633
  |   Hirshfeld dipole vector :      0.03457134      -0.00745349      -0.01739355
  |   Hirshfeld dipole moment :      0.03941152
  |   Hirshfeld second moments:      0.00220156       0.00463577       0.03519618
  |                                  0.00463577       0.05982698       0.00740564
  |                                  0.03519618       0.00740564       0.06856305
  ----------------------------------------------------------------------
  | Atom     9: H
  |   Hirshfeld charge        :      0.10691333
  |   Free atom volume        :     10.44207651
  |   Hirshfeld volume        :     10.67572171
  |   Hirshfeld dipole vector :      0.02599079       0.02766629       0.03151551
  |   Hirshfeld dipole moment :      0.04933733
  |   Hirshfeld second moments:      0.01035580      -0.01942501       0.00986566
  |                                 -0.01942501       0.01701670       0.00293636
  |                                  0.00986566       0.00293636       0.06072522
  ----------------------------------------------------------------------
  | Atom    10: H
  |   Hirshfeld charge        :      0.12089875
  |   Free atom volume        :     10.44207651
  |   Hirshfeld volume        :     10.58890382
  |   Hirshfeld dipole vector :     -0.01014356      -0.00518170      -0.07302921
  |   Hirshfeld dipole moment :      0.07391216
  |   Hirshfeld second moments:      0.03105671       0.00134682       0.01466581
  |                                  0.00134682       0.05363982       0.00905789
  |                                  0.01466581       0.00905789       0.03704202
  ----------------------------------------------------------------------
  | Atom    11: O
  |   Hirshfeld charge        :     -0.23089313
  |   Free atom volume        :     23.95238533
  |   Hirshfeld volume        :     22.20892486
  |   Hirshfeld dipole vector :     -0.01239234      -0.02116936       0.03507405
  |   Hirshfeld dipole moment :      0.04280071
  |   Hirshfeld second moments:      0.05704577      -0.01681934       0.00733948
  |                                 -0.01681934       0.03338350       0.03626957
  |                                  0.00733948       0.03626957      -0.00353760
  ----------------------------------------------------------------------
  | Atom    12: H
  |   Hirshfeld charge        :      0.09040976
  |   Free atom volume        :     10.44207651
  |   Hirshfeld volume        :      9.61046525
  |   Hirshfeld dipole vector :      0.00611143       0.01822964       0.03417053
  |   Hirshfeld dipole moment :      0.03920835
  |   Hirshfeld second moments:      0.07194679       0.00418935      -0.00085700
  |                                  0.00418935       0.03481896      -0.00581725
  |                                 -0.00085700      -0.00581725       0.01819890
  ----------------------------------------------------------------------
  | Atom    13: H
  |   Hirshfeld charge        :      0.12444673
  |   Free atom volume        :     10.44207651
  |   Hirshfeld volume        :      9.67205569
  |   Hirshfeld dipole vector :      0.06233544      -0.04969787       0.00661726
  |   Hirshfeld dipole moment :      0.07999608
  |   Hirshfeld second moments:      0.05670728       0.00616591      -0.00057956
  |                                  0.00616591       0.05689083       0.01771473
  |                                 -0.00057956       0.01771473       0.04949342
  ----------------------------------------------------------------------
  | Atom    14: O
  |   Hirshfeld charge        :     -0.26913408
  |   Free atom volume        :     23.95238533
  |   Hirshfeld volume        :     22.81893550
  |   Hirshfeld dipole vector :      0.01956360      -0.01860886       0.03030509
  |   Hirshfeld dipole moment :      0.04058845
  |   Hirshfeld second moments:      0.03290973       0.04642427      -0.02596710
  |                                  0.04642427      -0.00272090       0.02688135
  |                                 -0.02596710       0.02688135       0.00745601
  ----------------------------------------------------------------------
  | Atom    15: H
  |   Hirshfeld charge        :      0.10759594
  |   Free atom volume        :     10.44207651
  |   Hirshfeld volume        :     10.96976968
  |   Hirshfeld dipole vector :      0.06390795       0.03865097       0.01587863
  |   Hirshfeld dipole moment :      0.07635611
  |   Hirshfeld second moments:      0.03197404       0.01609760      -0.01897769
  |                                  0.01609760       0.02316940       0.00666934
  |                                 -0.01897769       0.00666934       0.03450106
  ----------------------------------------------------------------------
  | Atom    16: H
  |   Hirshfeld charge        :      0.09357617
  |   Free atom volume        :     10.44207651
  |   Hirshfeld volume        :     10.23490584
  |   Hirshfeld dipole vector :     -0.04875260      -0.02746068       0.03671112
  |   Hirshfeld dipole moment :      0.06692242
  |   Hirshfeld second moments:      0.04868184       0.02008146       0.00472391
  |                                  0.02008146       0.03682022       0.01473275
  |                                  0.00472391       0.01473275       0.02019145
  ----------------------------------------------------------------------
  | Atom    17: O
  |   Hirshfeld charge        :     -0.32731653
  |   Free atom volume        :     23.95238533
  |   Hirshfeld volume        :     24.08782153
  |   Hirshfeld dipole vector :     -0.00575108       0.06791799      -0.00801518
  |   Hirshfeld dipole moment :      0.06863069
  |   Hirshfeld second moments:     -0.04632304      -0.02386418      -0.06875270
  |                                 -0.02386418      -0.03555775       0.00834030
  |                                 -0.06875270       0.00834030      -0.01277329
  ----------------------------------------------------------------------
  | Atom    18: H
  |   Hirshfeld charge        :      0.10977415
  |   Free atom volume        :     10.44207651
  |   Hirshfeld volume        :      9.11356065
  |   Hirshfeld dipole vector :     -0.05833598       0.07830127       0.05838507
  |   Hirshfeld dipole moment :      0.11376726
  |   Hirshfeld second moments:      0.05512429      -0.00326582      -0.02705809
  |                                 -0.00326582       0.05849367      -0.00234264
  |                                 -0.02705809      -0.00234264       0.07068159
  ----------------------------------------------------------------------
  | Atom    19: H
  |   Hirshfeld charge        :      0.08445146
  |   Free atom volume        :     10.44207651
  |   Hirshfeld volume        :     10.34033763
  |   Hirshfeld dipole vector :      0.02983363       0.03383706      -0.05154013
  |   Hirshfeld dipole moment :      0.06849363
  |   Hirshfeld second moments:      0.01788416      -0.02408706      -0.01074384
  |                                 -0.02408706       0.04500632       0.01974327
  |                                 -0.01074384       0.01974327       0.02706788
  ----------------------------------------------------------------------


------------------------------------------------------------------------------
  Final output of selected total energy values:

  The following output summarizes some interesting total energy values
  at the end of a run (AFTER all relaxation, molecular dynamics, etc.).

  | Total energy of the DFT / Hartree-Fock s.c.f. calculation      :         -12513.106666891 eV
  | Final zero-broadening corrected energy (caution - metals only) :         -12513.109487839 eV
  | For reference only, the value of 1 Hartree used in FHI-aims is :             27.211384500 eV

  Before relying on these values, please be sure to understand exactly which
  total energy value is referred to by a given number. Different objects may
  all carry the same name 'total energy'. Definitions:

  Total energy of the DFT / Hartree-Fock s.c.f. calculation:
  | Note that this energy does not include ANY quantities calculated after the
  | s.c.f. cycle, in particular not ANY RPA, MP2, etc. many-body perturbation terms.

  Final zero-broadening corrected energy:
  | For metallic systems only, a broadening of the occupation numbers at the Fermi
  | level can be extrapolated back to zero broadening by an electron-gas inspired
  | formula. For all systems that are not real metals, this value can be
  | meaningless and should be avoided.

------------------------------------------------------------------------------

------------------------------------------------------------
          Leaving FHI-aims.
          Date     :  20150727, Time     :  115447.975

          Computational steps:
          | Number of self-consistency cycles          :           16

          Detailed time accounting                     :  max(cpu_time)    wall_clock(cpu1)
          | Total time                                 :       60.017 s          60.053 s
          | Preparation time                           :        0.173 s           0.475 s
          | Grid partitioning                          :        0.177 s           0.177 s
          | Preloading free-atom quantities on grid    :        0.013 s           0.014 s
          | Free-atom superposition energy             :        0.098 s           0.097 s
          | Total time for integrations                :       26.085 s          26.079 s
          | Total time for solution of K.-S. equations :        1.785 s           1.791 s
          | Total time for density & force components  :       20.699 s          20.701 s
          | Total time for mixing                      :        0.260 s           0.261 s
          | Total time for Hartree multipole update    :        0.105 s           0.105 s
          | Total time for Hartree multipole sum       :        9.896 s           9.899 s
          | Total time for total energy evaluation     :        0.005 s           0.005 s
          | Total time for scaled ZORA corrections     :        0.000 s           0.000 s
          | Total time for TS (2009) vdW correction    :        0.080 s           0.080 s

          Have a nice day.
------------------------------------------------------------
