  MPI-parallelism will be employed.
------------------------------------------------------------
          Invoking FHI-aims ...
          Version 081213
          Compiled on 2013/08/29 at 17:41:06 on host generoso.

          When using FHI-aims, please cite the following reference:

          Volker Blum, Ralf Gehrke, Felix Hanke, Paula Havu,
          Ville Havu, Xinguo Ren, Karsten Reuter, and Matthias Scheffler,
          'Ab Initio Molecular Simulations with Numeric Atom-Centered Orbitals: FHI-aims',
          Computer Physics Communications 180, 2175-2196 (2009)

          For any questions about FHI-aims, please visit the aimsclub website
          with its forums and wiki. Contributions to both the forums and the
          wiki are warmly encouraged - they are for you, and everyone is welcome there.

------------------------------------------------------------

  Date     :  20150727, Time     :  123606.944
  Time zero on CPU 1             :   0.409920000000000E-01  s.
  Internal wall clock time zero  :           207232566.944  s.

  Using        8 parallel tasks.
  Task        0 on host gen59 reporting.
  Task        1 on host gen59 reporting.
  Task        2 on host gen59 reporting.
  Task        3 on host gen59 reporting.
  Task        4 on host gen59 reporting.
  Task        5 on host gen59 reporting.
  Task        6 on host gen59 reporting.
  Task        7 on host gen59 reporting.

  Performing system and environment tests:
  | Environment variable OMP_NUM_THREADS correctly set to 1.
  | Checking for scalapack...
  | No scalapack compiled in.

  Obtaining array dimensions for all initial allocations:
  
  -----------------------------------------------------------------------
  Parsing control.in (first pass over file, find array dimensions only).
  The contents of control.in will be repeated verbatim below
  unless switched off by setting 'verbatim_writeout .false.' .
  in the first line of control.in .
  -----------------------------------------------------------------------
  
  #########################################################################################
  #
  #  Volker Blum, FHI 2008 : Test run input file control.in
  #
  #########################################################################################
  #
  #  Physical model
  #
    xc                 rpbe
    spin               none
    relativistic       atomic_zora scalar
    charge             0.
   vdw_correction_hirshfeld
  #
  #  SCF convergence
  #
    occupation_type    gaussian 0.01
    mixer              pulay
      n_max_pulay        10
      charge_mix_param   0.1
    sc_accuracy_rho    5E-5
    sc_accuracy_eev    5E-3
    sc_accuracy_etot   5E-6
    sc_iter_limit      3000
  #
  #  Eigenvalue solver
  #
    KS_method          lapack
      empty_states       8
      basis_threshold    0.e-5
  #
  #  Efficiency
  #
  #   all previous settings are now default, except stratmann still
  #   undecided. Continue to handle stratmann with care, if at all.
  #
  #  partition_type stratmann
    partition_type rho_r2
  #  hartree_partition_type stratmann
  #
  #  Oprions for large clusters (100's of atoms: memory saving / better scaling)
  #
  # for periodic systems:
  #
    density_update_method orbital
    packed_matrix_format none
  #  k_grid 6 6 6
  #  output k_eigenvalue 1
  #  distributed_spline_storage .true.
  #
  #  Relaxation
  #
  #  relax_geometry   bfgs 5.e-3
    sc_accuracy_forces 5.E-4
    final_forces_cleaned .true.
  #
  #  Output options
  #
  #  output mulliken
    output Hirshfeld
  #  output dipole
  
  #harmonic_length_scale 0.001
  
  ################################################################################
  #
  #  FHI-aims code project
  #  VB, Fritz-Haber Institut, 2007
  #
  #  Suggested "safe" defaults for H atom (to be pasted into control.in file)
  #  Basis constructed for a non-relativistic H2 molecule using the
  #  PW-LDA functional.
  #
  ################################################################################
    species        H
  #     global species definitions
      nucleus             1
      cut_pot             4.0  2.0  1.0
      cut_free_atom       finite 8.0
      logarithmic         0.00010000 100.00  1.0123
      basis_dep_cutoff    1d-4  # 1d-4 is safe default - please check 5d-4 if you wish!
      radial_base         24 7.0
      radial_multiplier   2
      angular_grids       specified
        division   0.2783  110
        division   0.3822  194
        division   0.5626  302
  #      division   0.5922  434
  #      division   0.6227  590
  #      division   0.7206  770
        outer_grid  302
      l_hartree           4
  ################################################################################
  #
  #  Definition of "minimal" basis
  #
  ################################################################################
  #     valence basis states
      valence      1  s   1.
  #     ion occupancy
      ion_occ      1  s   0.5
  ################################################################################
  #
  #  Suggested additional basis functions. For production calculations,
  #  uncomment them one after another (the most important basis functions are
  #  listed first).
  #
  ################################################################################
  #  "First tier" - improvements: -1014.90 meV to -62.69 meV
       hydro 2 s 2.1
       hydro 2 p 3.5
  #  "Second tier" - improvements: -12.89 meV to -1.83 meV
       hydro 1 s 0.85
       hydro 2 p 3.7
       hydro 2 s 1.2
       hydro 3 d 7
  #  "Third tier" - improvements: -0.25 meV to -0.12 meV
  #     hydro 4 f 11.2
  #     hydro 3 p 4.8
  #     hydro 4 d 9
  #     hydro 3 s 3.2
  
  ################################################################################
  #
  #  FHI-aims code project
  #  VB, Fritz-Haber Institut, 2007
  #
  #  Suggested "safe" defaults for O atom (to be pasted into control.in file)
  #  All values have been tested for a non-relativistic, non-spinpolarized O2
  #  molecule using the PW-LDA functional. Validity for PBE is expected.
  #
  #  Constructed for dimers: 1.0 A, 1.208 A, 1.5 A, 2.0 A, 3.0 A
  #
  ################################################################################
    species        O
  #     global species definitions
      nucleus             8
      mass                15.9994
      l_hartree           4
      cut_pot             4.0  2.0  1.0
      cut_free_atom       finite 8.0
      basis_dep_cutoff    1d-4  # 1d-4 is safe default - please check 5d-4 if you wish!
      logarithmic         0.00010000 100.00  1.0123
      radial_base         36 7.0
      radial_multiplier   2
       angular_grids specified
        division   0.4087  110
        division   0.5181  194
        division   0.6184  302
  #      division   0.7315  434
  #      division   0.7934  590
  #      division   0.9656  770
  #      division   1.4041  974
  #      outer_grid 974
        outer_grid 302
  ################################################################################
  #
  #  Definition of "minimal" basis
  #
  ################################################################################
  #     valence basis states
      valence      2  s   2.
      valence      2  p   4.
  #     ion occupancy
      ion_occ      2  s   1.
      ion_occ      2  p   3.
  ################################################################################
  #
  #  Suggested additional basis functions. For production calculations,
  #  uncomment them one after another (the most important basis functions are
  #  listed first).
  #
  ################################################################################
  #  "First tier" - improvements: -699.05 meV to -159.38 meV
       hydro 2 p 1.8
       hydro 3 d 7.6
       hydro 3 s 6.4
  #  "Second tier" - improvements: -49.91 meV to -5.39 meV
       hydro 4 f 11.6
       hydro 3 p 6.2
       hydro 3 d 5.6
       hydro 5 g 17.6
       hydro 1 s 0.75
  #  "Third tier" - improvements: -2.83 meV to -0.50 meV
  #     ionic 2 p auto
  #     hydro 4 f 10.8
  #     hydro 4 d 4.7
  #     hydro 2 s 6.8
  #  "Fourth tier" - improvements: -0.40 meV to -0.12 meV
  #     hydro 3 p 5
  #     hydro 3 s 3.3
  #     hydro 5 g 15.6
  #     hydro 4 f 17.6
  #     hydro 4 d 14
  # Further basis functions - -0.08 meV and below
  #     hydro 3 s 2.1
  #     hydro 4 d 11.6
  #     hydro 3 p 16
  #     hydro 2 s 17.2
  
  
  -----------------------------------------------------------------------
  Completed first pass over input file control.in .
  -----------------------------------------------------------------------
  
  
  -----------------------------------------------------------------------
  Parsing geometry.in (first pass over file, find array dimensions only).
  The contents of geometry.in will be repeated verbatim below
  unless switched off by setting 'verbatim_writeout .false.' .
  in the first line of geometry.in .
  -----------------------------------------------------------------------
  
  atom      -4.053030000      0.065001000     -1.525160000  O
  atom      -4.566710000      0.974813000     -1.912820000  H
  atom      -3.067820000      0.330172000     -1.477310000  H
  atom      -4.370360000     -0.049164000     -0.572274000  H
  atom      -5.293160000      2.192130000     -2.328800000  O
  atom      -4.829300000      2.988660000     -1.973850000  H
  atom      -5.428570000      2.328640000     -3.235170000  H
  atom      -1.645860000      0.870179000     -1.502250000  O
  atom      -1.568890000      1.501730000     -0.721051000  H
  atom      -0.824432000      0.282220000     -1.377720000  H
  atom      -3.818880000      2.024990000      2.187990000  O
  atom      -3.690880000      1.961360000      3.202150000  H
  atom      -4.546490000      2.751300000      2.045370000  H
  atom      -1.975360000      2.858040000      0.453140000  O
  atom      -1.223550000      3.375850000      0.786238000  H
  atom      -2.537520000      2.567960000      1.156120000  H
  
  -----------------------------------------------------------------------
  Completed first pass over input file geometry.in .
  -----------------------------------------------------------------------
  
 
  Basic array size parameters: 
  | Number of species                 :        2
  | Number of atoms                   :       16
  | Max. basis fn. angular momentum   :        4
  | Max. atomic/ionic basis occupied n:        2
  | Max. number of basis fn. types    :        2
  | Max. radial fns per species/type  :        8
  | Max. logarithmic grid size        :     1301
  | Max. radial integration grid size :       73
  | Max. angular integration grid size:      302
  | Max. angular grid division number :        8
  | Radial grid for Hartree potential :     1301
  | Number of spin channels           :        1

------------------------------------------------------------
          Reading file control.in.
------------------------------------------------------------
  XC: Using RPBE gradient-corrected functionals.
  Spin treatment: No spin polarisation.
  Scalar relativistic treatment of kinetic energy: on-site free-atom approximation to ZORA.
  Charge =   0.000000E+00: Neutral system requested explicitly.
  Using non-empirical van der Waals correction (Hirshfeld partitioning):
  Occupation type: Gaussian broadening, width =   0.100000E-01 eV.
  Using pulay charge density mixing.
  Pulay mixing - number of memorized iterations:   10
  Charge density mixing - mixing parameter:     0.1000
  Convergence accuracy of self-consistent charge density: 0.5000E-04
  Convergence accuracy of sum of eigenvalues: 0.5000E-02
  Convergence accuracy of total energy: 0.5000E-05
  Maximum number of s.-c. iterations  :  3000
  Kohn-Sham eigenvalues and eigenfunctions calculated by lapack diagonalisation (D&C).
  Number of empty states per atom:        8
  Threshold for basis singularities: 0.0000E+00
  Partition function in integrals calculations: rho / r^2
 Using packed matrix format           0
  Convergence accuracy of forces: 0.5000E-03
  Cleaning forces before final output.
  Hirshfeld charge analysis will be performed.
 
  Reading configuration options for species H                   .
  | Found nuclear charge :   1.0000
  | Found cutoff potl. onset [A], width [A], scale factor :    4.00000    2.00000    1.00000
  | Found cutoff specification for free atom: Cutoff potential begins at    8.00000 A.
  | Found logarithmic grid data [bohr] : 0.1000E-03 0.1000E+03 0.1012E+01
  | Threshold for basis-dependent cutoff potential is   0.100000E-03
  | Found data for basic radial integration grid :    24 points, outermost radius =    7.000 A
  | Found multiplier for basic radial grid :   2
  | Found angular grid specification: user-specified.
  | Specified grid contains     4 separate shells.
  | Check grid settings after all constraints further below.
  | Found l_max for Hartree potential  :   4
  | Found free-atom valence shell :  1 s   1.000
  | No ionic wave fns used. Skipping ion_occ.
  | Found hydrogenic basis function :  2 s   2.100
  | Found hydrogenic basis function :  2 p   3.500
  | Found hydrogenic basis function :  1 s   0.850
  | Found hydrogenic basis function :  2 p   3.700
  | Found hydrogenic basis function :  2 s   1.200
  | Found hydrogenic basis function :  3 d   7.000
  Species H                   : Missing cutoff potential type.
  Defaulting to exp(1/x)/(1-x)^2 type cutoff potential.
  Species H : On-site basis accuracy parameter (for Gram-Schmidt orthonormalisation) not specified.
  Using default value basis_acc =  0.1000000E-03.
  Species H                   : Using default innermost maximum threshold i_radial=  2 for radial functions.
  Species H                   : Basic radial grid will be enhanced according to radial_multiplier =   2, to contain    49 grid points.
 
  Reading configuration options for species O                   .
  | Found nuclear charge :   8.0000
  | Found atomic mass :    15.9994000000000      amu
  | Found l_max for Hartree potential  :   4
  | Found cutoff potl. onset [A], width [A], scale factor :    4.00000    2.00000    1.00000
  | Found cutoff specification for free atom: Cutoff potential begins at    8.00000 A.
  | Threshold for basis-dependent cutoff potential is   0.100000E-03
  | Found logarithmic grid data [bohr] : 0.1000E-03 0.1000E+03 0.1012E+01
  | Found data for basic radial integration grid :    36 points, outermost radius =    7.000 A
  | Found multiplier for basic radial grid :   2
  | Found angular grid specification: user-specified.
  | Specified grid contains     4 separate shells.
  | Check grid settings after all constraints further below.
  | Found free-atom valence shell :  2 s   2.000
  | Found free-atom valence shell :  2 p   4.000
  | No ionic wave fns used. Skipping ion_occ.
  | No ionic wave fns used. Skipping ion_occ.
  | Found hydrogenic basis function :  2 p   1.800
  | Found hydrogenic basis function :  3 d   7.600
  | Found hydrogenic basis function :  3 s   6.400
  | Found hydrogenic basis function :  4 f  11.600
  | Found hydrogenic basis function :  3 p   6.200
  | Found hydrogenic basis function :  3 d   5.600
  | Found hydrogenic basis function :  5 g  17.600
  | Found hydrogenic basis function :  1 s   0.750
  Species O                   : Missing cutoff potential type.
  Defaulting to exp(1/x)/(1-x)^2 type cutoff potential.
  Species O : On-site basis accuracy parameter (for Gram-Schmidt orthonormalisation) not specified.
  Using default value basis_acc =  0.1000000E-03.
  Species O                   : Using default innermost maximum threshold i_radial=  2 for radial functions.
  Species O                   : Basic radial grid will be enhanced according to radial_multiplier =   2, to contain    73 grid points.
 
  Finished reading input file 'control.in'. Consistency checks are next.
 
  Target number of points in a grid batch is not set. Defaulting to  100
  Method for grid partitioning is not set. Defaulting to parallel hash+maxmin partitioning.
  Batch size limit is not set. Defaulting to    200
  By default, will store active basis functions for each batch.
  If in need of memory, prune_basis_once .false. can be used to disable this option.
  communication_type for Hartree potential was not specified.
  Defaulting to calc_hartree .
  Pulay mixer: Number of initial linear mixing iterations not set.
  Defaulting to    0 iterations.
  Work space size for distributed Hartree potential not set.
  Defaulting to   0.200000E+03 MB.
  Algorithm-dependent basis array size parameters:
  | n_max_pulay                         :       10
  Geometry relaxation not requested: no relaxation will be performed.
  Handling of forces: Unphysical translation and rotation will be removed from forces.
  No accuracy limit for integral partition fn. given. Defaulting to 0.1000E-14.
  No threshold value for u(r) in integrations given. Defaulting to 0.1000E-05.
  No accuracy for occupation numbers given. Defaulting to 0.1000E-07.
  No threshold value for occupation numbers given. Defaulting to 0.0000E+00.
  No accuracy for fermi level given. Defaulting to 0.1000E-19.
  Maximum # of iterations to find E_F not set. Defaulting to  200.
  Will not use alltoall communication since running on < 1024 CPUs.
  Partitioning for Hartree potential was not defined. Using partition_type for integrals.
  | Reporting present value of keyword multip_moments_threshold  :       0.10000000E-09
  | This value may affect high angular momentum components of the Hartree potential in periodic systems.
  No q(lm)/r^(l+1) cutoff set for long-range Hartree potential.
  | Using default value of  0.100000E-09 .
  | Verify using the multipole_threshold keyword.
  Defaulting to new monopole extrapolation.
  Density update method: Loop over occupied states selected for charge density update.
------------------------------------------------------------


------------------------------------------------------------
          Reading geometry description geometry.in.
------------------------------------------------------------
  Input structure read successfully.
  The structure contains       16 atoms,  and a total of         51.000 electrons.

  Input geometry:
  | No unit cell requested.
  | Atomic structure:
  |       Atom                x [A]            y [A]            z [A]
  |    1: Species O             -4.053030         0.065001        -1.525160
  |    2: Species H             -4.566710         0.974813        -1.912820
  |    3: Species H             -3.067820         0.330172        -1.477310
  |    4: Species H             -4.370360        -0.049164        -0.572274
  |    5: Species O             -5.293160         2.192130        -2.328800
  |    6: Species H             -4.829300         2.988660        -1.973850
  |    7: Species H             -5.428570         2.328640        -3.235170
  |    8: Species O             -1.645860         0.870179        -1.502250
  |    9: Species H             -1.568890         1.501730        -0.721051
  |   10: Species H             -0.824432         0.282220        -1.377720
  |   11: Species O             -3.818880         2.024990         2.187990
  |   12: Species H             -3.690880         1.961360         3.202150
  |   13: Species H             -4.546490         2.751300         2.045370
  |   14: Species O             -1.975360         2.858040         0.453140
  |   15: Species H             -1.223550         3.375850         0.786238
  |   16: Species H             -2.537520         2.567960         1.156120
  |

  | The smallest distance between any two atoms is         0.92654057 AA.
  |
  | The first atom of this pair is atom number                      5 .
  | The second atom of this pair is atom number                     7 .

  Structure-dependent array size parameters: 
  | Maximum number of distinct radial functions  :       18
  | Maximum number of basis functions            :      360
  | Number of Kohn-Sham states (occupied + empty):       90
------------------------------------------------------------

------------------------------------------------------------
          Preparing all fixed parts of the calculation.
------------------------------------------------------------
  Determining machine precision:
    2.225073858507201E-308
  Setting up grids for atomic and cluster calculations.

  Creating wave function, potential, and density for free atoms.

  Species: H

  List of occupied orbitals and eigenvalues:
    n    l              occ      energy [Ha]    energy [eV]
    1    0           1.0000        -0.241408        -6.5691


  Species: O

  List of occupied orbitals and eigenvalues:
    n    l              occ      energy [Ha]    energy [eV]
    1    0           2.0000       -18.944147      -515.4965
    2    0           2.0000        -0.883529       -24.0421
    2    1           4.0000        -0.330176        -8.9845

  Creating fixed part of basis set: Ionic, confined, hydrogenic.
 
  H                    hydrogenic:
 
  List of hydrogenic basis orbitals: 
    n    l      effective z      eigenvalue [eV]  inner max. [A]     outer max. [A]     outer radius [A]   
    2    0         2.100000       -14.9965           0.193241           1.317192           5.372934
    2    1         3.500000       -41.6672           0.602363           0.602363           4.056010
    1    0         0.850000        -9.8292           0.624864           0.624864           5.372934
    2    1         3.700000       -46.5653           0.573616           0.573616           3.909951
    2    0         1.200000        -4.5995           0.334977           2.228160           5.505921
    3    2         7.000000       -74.0753           0.680692           0.680692           3.769152
 
 
  O                    hydrogenic:
 
  List of hydrogenic basis orbitals: 
    n    l      effective z      eigenvalue [eV]  inner max. [A]     outer max. [A]     outer radius [A]   
    2    1         1.800000       -11.0118           1.178546           1.178546           5.432516
    3    2         7.600000       -87.3182           0.624117           0.624117           3.541422
    3    0         6.400000       -61.9209           0.061166           1.081887           4.306510
    4    3        11.600000      -114.4238           0.731621           0.731621           3.584982
    3    1         6.200000       -58.1113           0.255677           1.030255           4.306510
    3    2         5.600000       -47.4081           0.847222           0.847222           4.413102
    5    4        17.600000      -168.5799           0.749730           0.749730           3.372413
    1    0         0.750000        -7.6499           0.705275           0.705275           5.366508
 

  Adding cutoff potential to free-atom effective potential.
  Creating atomic-like basis functions for current effective potential.

  Species H                   :

  List of atomic basis orbitals and eigenvalues:
    n    l      energy [Ha]    energy [eV]    outer radius [A]
    1    0        -0.241374        -6.5681       5.372934


  Species O                   :

  List of atomic basis orbitals and eigenvalues:
    n    l      energy [Ha]    energy [eV]    outer radius [A]
    1    0       -18.944147      -515.4965       1.415745
    2    0        -0.883529       -24.0421       5.048305
    2    1        -0.330173        -8.9845       5.301302

  Assembling full basis from fixed parts.
  | Species H :   atomic orbital   1 s accepted.
  | Species H :    hydro orbital   2 s accepted.
  | Species H :    hydro orbital   1 s accepted.
  | Species H :    hydro orbital   2 s accepted.
  | Species H :    hydro orbital   2 p accepted.
  | Species H :    hydro orbital   2 p accepted.
  | Species H :    hydro orbital   3 d accepted.
  | Species O :   atomic orbital   1 s accepted.
  | Species O :    hydro orbital   3 s accepted.
  | Species O :   atomic orbital   2 s accepted.
  | Species O :    hydro orbital   1 s accepted.
  | Species O :    hydro orbital   3 p accepted.
  | Species O :   atomic orbital   2 p accepted.
  | Species O :    hydro orbital   2 p accepted.
  | Species O :    hydro orbital   3 d accepted.
  | Species O :    hydro orbital   3 d accepted.
  | Species O :    hydro orbital   4 f accepted.
  | Species O :    hydro orbital   5 g accepted.
 
  Basis size parameters after reduction:
  | Total number of radial functions:       18
  | Total number of basis functions :      360
 
  Testing on-site integration grid accuracy.
  |  Species  Function  <phi|h_atom|phi> (log., in eV)  <phi|h_atom|phi> (rad., in eV)
           1        1                 -6.5683835025                 -6.5684759159
           1        2                 13.3711789951                 13.3708738703
           1        3                 23.6590910787                 23.6532055418
           1        4                 16.2963827186                 16.1870710655 ***
           1        5                 28.7627214838                 28.7627215090
           1        6                 59.5965249172                 59.5965950857
           1        7                 60.2220506392                 60.2220503827
           2        8               -515.4964576505               -515.4964530710
           2        9                 15.3030791347                 15.3030722972
           2       10                -21.7296094581                -21.7296135470
           2       11                 14.2969371730                 14.2969701621
           2       12                 21.0679693190                 21.0679697493
           2       13                 -2.3833606469                 -2.3833613176
           2       14                 13.7067136422                 13.7066766629
           2       15                 45.8013116808                 45.8013116965
           2       16                 52.2309815402                 52.2309831494
           2       17                 85.4120732416                 85.4120732763
           2       18                142.1019167745                142.1019167817
 * Note: Onsite integrals marked "***" above are less accurate than
 * onsite_accuracy_threshold =    0.03000 eV. Usually, this is harmless.
 * When in doubt, tighten the "radial" and/or "radial_multiplier" flags to check.

  Preparing densities etc. for the partition functions (integrals / Hartree potential).

  Preparations completed.
  max(cpu_time)          :      0.172 s.
  Wall clock time (cpu1) :      0.474 s.
------------------------------------------------------------

------------------------------------------------------------
          Begin self-consistency loop: Initialization.

          Date     :  20150727, Time     :  123607.441
------------------------------------------------------------

  Initializing index lists of integration centers etc. from given atomic structure:
  | Number of centers in hartree potential         :        16
  | Number of centers in hartree multipole         :        16
  | Number of centers in electron density summation:        16
  | Number of centers in basis integrals           :        16
  | Number of centers in integrals                 :        16
  Partitioning the integration grid into batches with parallel hashing+maxmin method.
  | Number of batches:     2215
  | Maximal batch size:     193
  | Minimal batch size:      52
  | Average batch size:      94.042
  | Standard deviation of batch sizes:      30.620

  Integration load balanced across     8 MPI tasks.
  Work distribution over tasks is as follows:
  Task     0 has      26044 integration points.
  Task     1 has      26081 integration points.
  Task     2 has      25967 integration points.
  Task     3 has      26000 integration points.
  Task     4 has      26041 integration points.
  Task     5 has      26079 integration points.
  Task     6 has      26000 integration points.
  Task     7 has      26092 integration points.
  Initializing partition tables, free-atom densities, potentials, etc. across the integration grid (initialize_grid_storage).
  | Net number of integration points:   208304
  | of which are non-zero points    :   207753
  Obtaining max. number of non-zero basis functions in each batch (get_n_compute_maxes).
  | Maximal number of non-zero basis functions:      357 in task     0
  | Maximal number of non-zero basis functions:      357 in task     1
  | Maximal number of non-zero basis functions:      357 in task     2
  | Maximal number of non-zero basis functions:      357 in task     3
  | Maximal number of non-zero basis functions:      357 in task     4
  | Maximal number of non-zero basis functions:      356 in task     5
  | Maximal number of non-zero basis functions:      357 in task     6
  | Maximal number of non-zero basis functions:      357 in task     7
  Integrating Hamiltonian matrix: batch-based integration.
  Time summed over all CPUs for integration: real work        8.272 s, elapsed        8.427 s
  Integrating overlap matrix.
  Time summed over all CPUs for integration: real work        4.474 s, elapsed        4.600 s

  Updating Kohn-Sham eigenvalues, eigenvectors, occupation numbers, and Fermi level.
  Solving generalized eigenproblem
  Updating Kohn-Sham eigenvalues and eigenfunctions.
  Transforming overlap matrix and checking for singularities.
  Overlap matrix is nonsingular:
  | Lowest eigenvalue:  0.229671E-03
  Solving real generalised eigenvalue problem by standard LAPACK (fast)
  Determining occupation numbers for Kohn-Sham eigenstates.
  | Chemical potential (Fermi level) in eV                 : -.27035176E+01
  | Error in electron count due to remaining E_F inaccuracy: -.42632564E-13
  | Maximum occupation number of highest empty state:  0.00E+00

  Writing Kohn-Sham eigenvalues.

  State    Occupation    Eigenvalue [Ha]    Eigenvalue [eV]
      1       2.00000         -19.065148         -518.78909
      2       2.00000         -19.064852         -518.78101
      3       2.00000         -19.057378         -518.57764
      4       2.00000         -19.042581         -518.17498
      5       2.00000         -19.032602         -517.90346
      6       2.00000          -1.129209          -30.72733
      7       2.00000          -1.114615          -30.33020
      8       2.00000          -1.109470          -30.19022
      9       2.00000          -1.081693          -29.43437
     10       2.00000          -1.064985          -28.97971
     11       2.00000          -0.654194          -17.80153
     12       2.00000          -0.650824          -17.70982
     13       2.00000          -0.639895          -17.41242
     14       2.00000          -0.622180          -16.93037
     15       2.00000          -0.607706          -16.53652
     16       2.00000          -0.594090          -16.16602
     17       2.00000          -0.533485          -14.51687
     18       2.00000          -0.516845          -14.06406
     19       2.00000          -0.505322          -13.75051
     20       2.00000          -0.491530          -13.37521
     21       2.00000          -0.484803          -13.19217
     22       2.00000          -0.452574          -12.31518
     23       2.00000          -0.443878          -12.07853
     24       2.00000          -0.435701          -11.85602
     25       2.00000          -0.425329          -11.57380
     26       1.00000          -0.099352           -2.70352
     27       0.00000          -0.072528           -1.97357
     28       0.00000          -0.063614           -1.73102
     29       0.00000          -0.049243           -1.33996
     30       0.00000          -0.033636           -0.91529
     31       0.00000          -0.018013           -0.49015
     32       0.00000           0.000775            0.02108
     33       0.00000           0.032581            0.88659
     34       0.00000           0.035771            0.97337
     35       0.00000           0.048131            1.30971
     36       0.00000           0.058301            1.58646
     37       0.00000           0.065688            1.78746
     38       0.00000           0.080944            2.20259
     39       0.00000           0.083722            2.27818
     40       0.00000           0.096584            2.62818
     41       0.00000           0.098392            2.67739
     42       0.00000           0.101304            2.75663
     43       0.00000           0.112931            3.07300
     44       0.00000           0.114458            3.11455
     45       0.00000           0.125493            3.41483
     46       0.00000           0.131796            3.58636
     47       0.00000           0.140172            3.81427
     48       0.00000           0.145834            3.96836
     49       0.00000           0.154663            4.20858
     50       0.00000           0.165756            4.51046
     51       0.00000           0.177098            4.81909
     52       0.00000           0.182307            4.96084
     53       0.00000           0.215874            5.87424
     54       0.00000           0.233255            6.34719
     55       0.00000           0.234288            6.37531
     56       0.00000           0.240442            6.54275
     57       0.00000           0.253318            6.89315
     58       0.00000           0.278824            7.58720
     59       0.00000           0.287049            7.81101
     60       0.00000           0.294857            8.02346
     61       0.00000           0.305124            8.30285
     62       0.00000           0.319138            8.68419
     63       0.00000           0.347131            9.44592
     64       0.00000           0.362994            9.87756
     65       0.00000           0.371224           10.10151
     66       0.00000           0.379863           10.33660
     67       0.00000           0.384419           10.46057
     68       0.00000           0.387892           10.55507
     69       0.00000           0.396350           10.78522
     70       0.00000           0.405399           11.03148
     71       0.00000           0.419125           11.40496
     72       0.00000           0.439096           11.94841
     73       0.00000           0.443890           12.07886
     74       0.00000           0.464258           12.63310
     75       0.00000           0.476695           12.97154
     76       0.00000           0.504560           13.72976
     77       0.00000           0.516637           14.05841
     78       0.00000           0.530959           14.44812
     79       0.00000           0.549439           14.95098
     80       0.00000           0.556661           15.14752
     81       0.00000           0.584242           15.89802
     82       0.00000           0.589847           16.05057
     83       0.00000           0.632611           17.21423
     84       0.00000           0.634772           17.27301
     85       0.00000           0.678451           18.46160
     86       0.00000           0.702292           19.11033
     87       0.00000           0.728942           19.83553
     88       0.00000           0.745272           20.27990
     89       0.00000           0.762027           20.73580
     90       0.00000           0.776648           21.13368

  Highest occupied state (VBM) at    -11.57380181 eV
  | Occupation number:      2.00000000

  Lowest unoccupied state (CBM) at    -2.70351759 eV
  | Occupation number:      1.00000000

  Overall HOMO-LUMO gap:      8.87028423 eV.
  Calculating total energy contributions from superposition of free atom densities.

  Total energy components:
  | Sum of eigenvalues            :        -217.74112980 Ha       -5925.03760458 eV
  | XC energy correction          :         -45.95752321 Ha       -1250.56783478 eV
  | XC potential correction       :          58.73999389 Ha        1598.39655934 eV
  | Free-atom electrostatic energy:        -178.57414086 Ha       -4859.24960859 eV
  | Hartree energy correction     :           0.00000000 Ha           0.00000000 eV
  | van der Waals energy corr.    :           0.00000000 Ha           0.00000000 eV
  | Entropy correction            :          -0.00010367 Ha          -0.00282095 eV
  | ---------------------------
  | Total energy                  :        -383.53279998 Ha      -10436.45848861 eV
  | Total energy, T -> 0          :        -383.53290365 Ha      -10436.46130956 eV  <-- do not rely on this value for anything but (periodic) metals
  | Electronic free energy        :        -383.53300732 Ha      -10436.46413051 eV

  Derived energy quantities:
  | Kinetic energy                :         379.90426844 Ha       10337.72112162 eV
  | Electrostatic energy          :        -717.47954520 Ha      -19523.61177545 eV
  | Energy correction for multipole
  | error in Hartree potential    :           0.00000000 Ha           0.00000000 eV
  | Sum of eigenvalues per atom                           :        -370.31485029 eV
  | Total energy (T->0) per atom                          :        -652.27883185 eV  <-- do not rely on this value for anything but (periodic) metals
  | Electronic free energy per atom                       :        -652.27900816 eV
  Initialize hartree_potential_storage
  Max. number of atoms included in rho_multipole:           16

  End scf initialization - timings             :  max(cpu_time)    wall_clock(cpu1)
  | Time for scf. initialization               :        2.239 s           2.238 s
  | Boundary condition initialization          :        0.000 s           0.001 s
  | Integration                                :        1.632 s           1.632 s
  | Solution of K.-S. eqns.                    :        0.213 s           0.213 s
  | Grid partitioning                          :        0.151 s           0.151 s
  | Preloading free-atom quantities on grid    :        0.013 s           0.013 s
  | Free-atom superposition energy             :        0.073 s           0.072 s
  | Total energy evaluation                    :        0.001 s           0.001 s
------------------------------------------------------------

------------------------------------------------------------
          Begin self-consistency iteration #    1

  Date     :  20150727, Time     :  123609.680
------------------------------------------------------------
  Evaluating new KS density.
  Integration grid: deviation in total charge (<rho> - N_e) =  -4.263256E-14
  Pulay mixing of updated and previous charge densities.

  Evaluating partitioned Hartree potential by multipole expansion.
  | Analytical far-field extrapolation by fixed multipoles:
  | Hartree multipole sum: apparent total charge =  -0.114312E-05
  Summing up the Hartree potential.
  Time summed over all CPUs for potential: real work        2.895 s, elapsed        2.902 s
  | RMS charge density error from multipole expansion :   0.165960E-02

  Integrating Hamiltonian matrix: batch-based integration.
  Time summed over all CPUs for integration: real work        8.266 s, elapsed        8.439 s

  Updating Kohn-Sham eigenvalues, eigenvectors, occupation numbers, and Fermi level.
  Solving generalized eigenproblem
  Updating Kohn-Sham eigenvalues and eigenfunctions.
  Solving real generalised eigenvalue problem by standard LAPACK (fast)
  Determining occupation numbers for Kohn-Sham eigenstates.
  | Chemical potential (Fermi level) in eV                 : -.24696203E+01
  | Error in electron count due to remaining E_F inaccuracy: 0.86046725E-11
  | Maximum occupation number of highest empty state:  0.00E+00

  Writing Kohn-Sham eigenvalues.

  State    Occupation    Eigenvalue [Ha]    Eigenvalue [eV]
      1       2.00000         -19.010300         -517.29659
      2       2.00000         -18.997612         -516.95132
      3       2.00000         -18.974023         -516.30944
      4       2.00000         -18.972192         -516.25962
      5       2.00000         -18.958805         -515.89532
      6       2.00000          -1.101452          -29.97204
      7       2.00000          -1.084505          -29.51090
      8       2.00000          -1.066822          -29.02972
      9       2.00000          -1.046205          -28.46870
     10       2.00000          -1.026981          -27.94557
     11       2.00000          -0.624055          -16.98140
     12       2.00000          -0.616822          -16.78458
     13       2.00000          -0.615797          -16.75669
     14       2.00000          -0.599319          -16.30830
     15       2.00000          -0.576814          -15.69590
     16       2.00000          -0.562175          -15.29756
     17       2.00000          -0.503209          -13.69300
     18       2.00000          -0.481105          -13.09153
     19       2.00000          -0.468480          -12.74798
     20       2.00000          -0.457193          -12.44085
     21       2.00000          -0.450512          -12.25906
     22       2.00000          -0.420290          -11.43668
     23       2.00000          -0.401523          -10.92600
     24       2.00000          -0.397873          -10.82668
     25       2.00000          -0.385557          -10.49154
     26       1.00000          -0.090757           -2.46962
     27       0.00000          -0.064141           -1.74536
     28       0.00000          -0.055804           -1.51850
     29       0.00000          -0.042017           -1.14334
     30       0.00000          -0.025153           -0.68446
     31       0.00000          -0.010495           -0.28559
     32       0.00000           0.007618            0.20729
     33       0.00000           0.041136            1.11937
     34       0.00000           0.045849            1.24762
     35       0.00000           0.053661            1.46019
     36       0.00000           0.064451            1.75379
     37       0.00000           0.072672            1.97751
     38       0.00000           0.090455            2.46142
     39       0.00000           0.093605            2.54712
     40       0.00000           0.104731            2.84988
     41       0.00000           0.105149            2.86126
     42       0.00000           0.109340            2.97528
     43       0.00000           0.120496            3.27885
     44       0.00000           0.124215            3.38006
     45       0.00000           0.136540            3.71544
     46       0.00000           0.141572            3.85238
     47       0.00000           0.151168            4.11350
     48       0.00000           0.157608            4.28873
     49       0.00000           0.167766            4.56514
     50       0.00000           0.175382            4.77240
     51       0.00000           0.185085            5.03643
     52       0.00000           0.191785            5.21874
     53       0.00000           0.224018            6.09583
     54       0.00000           0.240853            6.55395
     55       0.00000           0.241575            6.57360
     56       0.00000           0.248534            6.76297
     57       0.00000           0.261567            7.11761
     58       0.00000           0.286104            7.78528
     59       0.00000           0.294039            8.00120
     60       0.00000           0.300143            8.16730
     61       0.00000           0.313238            8.52365
     62       0.00000           0.326850            8.89404
     63       0.00000           0.355891            9.68429
     64       0.00000           0.372750           10.14304
     65       0.00000           0.380040           10.34142
     66       0.00000           0.387419           10.54220
     67       0.00000           0.392880           10.69082
     68       0.00000           0.397078           10.80505
     69       0.00000           0.405463           11.03322
     70       0.00000           0.413852           11.26149
     71       0.00000           0.426286           11.59983
     72       0.00000           0.448502           12.20437
     73       0.00000           0.451403           12.28329
     74       0.00000           0.471469           12.82932
     75       0.00000           0.485409           13.20865
     76       0.00000           0.513324           13.96825
     77       0.00000           0.525810           14.30802
     78       0.00000           0.539931           14.69227
     79       0.00000           0.558802           15.20578
     80       0.00000           0.567367           15.43884
     81       0.00000           0.594917           16.18852
     82       0.00000           0.602775           16.40235
     83       0.00000           0.642318           17.47836
     84       0.00000           0.645536           17.56592
     85       0.00000           0.689320           18.75736
     86       0.00000           0.714555           19.44403
     87       0.00000           0.740896           20.16080
     88       0.00000           0.754178           20.52224
     89       0.00000           0.775066           21.09062
     90       0.00000           0.786330           21.39713

  Highest occupied state (VBM) at     -2.46962029 eV
  | Occupation number:      1.00000000

  Lowest unoccupied state (CBM) at    -1.74535906 eV
  | Occupation number:      0.00000000

  Overall HOMO-LUMO gap:      0.72426123 eV.

  Total energy components:
  | Sum of eigenvalues            :        -215.69000108 Ha       -5869.22355209 eV
  | XC energy correction          :         -46.17531862 Ha       -1256.49434936 eV
  | XC potential correction       :          59.02434354 Ha        1606.13410703 eV
  | Free-atom electrostatic energy:        -178.57414086 Ha       -4859.24960859 eV
  | Hartree energy correction     :          -2.00074723 Ha         -54.44310223 eV
  | van der Waals energy corr.    :           0.00000000 Ha           0.00000000 eV
  | Entropy correction            :          -0.00010367 Ha          -0.00282095 eV
  | ---------------------------
  | Total energy                  :        -383.41586424 Ha      -10433.27650525 eV
  | Total energy, T -> 0          :        -383.41596791 Ha      -10433.27932620 eV  <-- do not rely on this value for anything but (periodic) metals
  | Electronic free energy        :        -383.41607158 Ha      -10433.28214715 eV

  Derived energy quantities:
  | Kinetic energy                :         381.23095072 Ha       10373.82198331 eV
  | Electrostatic energy          :        -718.47149634 Ha      -19550.60413920 eV
  | Energy correction for multipole
  | error in Hartree potential    :           0.00029534 Ha           0.00803669 eV
  | Sum of eigenvalues per atom                           :        -366.82647201 eV
  | Total energy (T->0) per atom                          :        -652.07995789 eV  <-- do not rely on this value for anything but (periodic) metals
  | Electronic free energy per atom                       :        -652.08013420 eV

  Self-consistency convergence accuracy:
  | Change of charge density      : 0.6292E+00
  | Change of sum of eigenvalues  : 0.5581E+02 eV
  | Change of total energy        : 0.3182E+01 eV

  End self-consistency iteration #     1       :  max(cpu_time)    wall_clock(cpu1)
  | Time for this iteration                    :        2.170 s           2.169 s
  | Charge density update                      :        0.678 s           0.677 s
  | Density mixing                             :        0.003 s           0.004 s
  | Hartree multipole update                   :        0.005 s           0.006 s
  | Hartree multipole summation                :        0.364 s           0.364 s
  | Integration                                :        1.057 s           1.056 s
  | Solution of K.-S. eqns.                    :        0.057 s           0.058 s
  | Total energy evaluation                    :        0.001 s           0.001 s
------------------------------------------------------------

------------------------------------------------------------
          Begin self-consistency iteration #    2

  Date     :  20150727, Time     :  123611.850
------------------------------------------------------------
  Evaluating new KS density.
  Integration grid: deviation in total charge (<rho> - N_e) =   8.604673E-12
  Pulay mixing of updated and previous charge densities.

  Evaluating partitioned Hartree potential by multipole expansion.
  | Analytical far-field extrapolation by fixed multipoles:
  | Hartree multipole sum: apparent total charge =  -0.407689E-05
  Summing up the Hartree potential.
  Time summed over all CPUs for potential: real work        2.895 s, elapsed        2.902 s
  | RMS charge density error from multipole expansion :   0.675860E-02

  Integrating Hamiltonian matrix: batch-based integration.
  Time summed over all CPUs for integration: real work        8.236 s, elapsed        8.411 s

  Updating Kohn-Sham eigenvalues, eigenvectors, occupation numbers, and Fermi level.
  Solving generalized eigenproblem
  Updating Kohn-Sham eigenvalues and eigenfunctions.
  Solving real generalised eigenvalue problem by standard LAPACK (fast)
  Determining occupation numbers for Kohn-Sham eigenstates.
  | Chemical potential (Fermi level) in eV                 : -.19306504E+01
  | Error in electron count due to remaining E_F inaccuracy: -.77480422E-09
  | Maximum occupation number of highest empty state:  0.00E+00

  Highest occupied state (VBM) at     -7.86976212 eV
  | Occupation number:      2.00000000

  Lowest unoccupied state (CBM) at    -1.93065043 eV
  | Occupation number:      1.00000000

  Overall HOMO-LUMO gap:      5.93911169 eV.

  Total energy components:
  | Sum of eigenvalues            :        -210.74657987 Ha       -5734.70621702 eV
  | XC energy correction          :         -46.72678616 Ha       -1271.50054456 eV
  | XC potential correction       :          59.74272078 Ha        1625.68214614 eV
  | Free-atom electrostatic energy:        -178.57414086 Ha       -4859.24960859 eV
  | Hartree energy correction     :          -6.97907871 Ha        -189.91039427 eV
  | van der Waals energy corr.    :           0.00000000 Ha           0.00000000 eV
  | Entropy correction            :          -0.00010367 Ha          -0.00282095 eV
  | ---------------------------
  | Total energy                  :        -383.28386482 Ha      -10429.68461830 eV
  | Total energy, T -> 0          :        -383.28396849 Ha      -10429.68743925 eV  <-- do not rely on this value for anything but (periodic) metals
  | Electronic free energy        :        -383.28407216 Ha      -10429.69026020 eV

  Derived energy quantities:
  | Kinetic energy                :         384.00940496 Ha       10449.42757007 eV
  | Electrostatic energy          :        -720.56648363 Ha      -19607.61164381 eV
  | Energy correction for multipole
  | error in Hartree potential    :           0.00024540 Ha           0.00667761 eV
  | Sum of eigenvalues per atom                           :        -358.41913856 eV
  | Total energy (T->0) per atom                          :        -651.85546495 eV  <-- do not rely on this value for anything but (periodic) metals
  | Electronic free energy per atom                       :        -651.85564126 eV

  Self-consistency convergence accuracy:
  | Change of charge density      : 0.4786E+00
  | Change of sum of eigenvalues  : 0.1345E+03 eV
  | Change of total energy        : 0.3592E+01 eV

  End self-consistency iteration #     2       :  max(cpu_time)    wall_clock(cpu1)
  | Time for this iteration                    :        2.163 s           2.162 s
  | Charge density update                      :        0.676 s           0.676 s
  | Density mixing                             :        0.006 s           0.005 s
  | Hartree multipole update                   :        0.005 s           0.005 s
  | Hartree multipole summation                :        0.364 s           0.363 s
  | Integration                                :        1.053 s           1.053 s
  | Solution of K.-S. eqns.                    :        0.058 s           0.058 s
  | Total energy evaluation                    :        0.001 s           0.001 s
------------------------------------------------------------

------------------------------------------------------------
          Begin self-consistency iteration #    3

  Date     :  20150727, Time     :  123614.013
------------------------------------------------------------
  Evaluating new KS density.
  Integration grid: deviation in total charge (<rho> - N_e) =  -7.747900E-10
  Pulay mixing of updated and previous charge densities.

  Evaluating partitioned Hartree potential by multipole expansion.
  | Analytical far-field extrapolation by fixed multipoles:
  | Hartree multipole sum: apparent total charge =  -0.423406E-05
  Summing up the Hartree potential.
  Time summed over all CPUs for potential: real work        2.895 s, elapsed        2.901 s
  | RMS charge density error from multipole expansion :   0.139779E-01

  Integrating Hamiltonian matrix: batch-based integration.
  Time summed over all CPUs for integration: real work        8.241 s, elapsed        8.433 s

  Updating Kohn-Sham eigenvalues, eigenvectors, occupation numbers, and Fermi level.
  Solving generalized eigenproblem
  Updating Kohn-Sham eigenvalues and eigenfunctions.
  Solving real generalised eigenvalue problem by standard LAPACK (fast)
  Determining occupation numbers for Kohn-Sham eigenstates.
  | Chemical potential (Fermi level) in eV                 : -.18750345E+01
  | Error in electron count due to remaining E_F inaccuracy: -.82323481E-10
  | Maximum occupation number of highest empty state:  0.00E+00

  Highest occupied state (VBM) at     -7.73958727 eV
  | Occupation number:      2.00000000

  Lowest unoccupied state (CBM) at    -1.87503451 eV
  | Occupation number:      1.00000000

  Overall HOMO-LUMO gap:      5.86455277 eV.

  Total energy components:
  | Sum of eigenvalues            :        -211.03910400 Ha       -5742.66620350 eV
  | XC energy correction          :         -46.72294975 Ha       -1271.39615068 eV
  | XC potential correction       :          59.72872711 Ha        1625.30135918 eV
  | Free-atom electrostatic energy:        -178.57414086 Ha       -4859.24960859 eV
  | Hartree energy correction     :          -6.67566891 Ha        -181.65419354 eV
  | van der Waals energy corr.    :           0.00000000 Ha           0.00000000 eV
  | Entropy correction            :          -0.00010367 Ha          -0.00282095 eV
  | ---------------------------
  | Total energy                  :        -383.28313641 Ha      -10429.66479713 eV
  | Total energy, T -> 0          :        -383.28324007 Ha      -10429.66761808 eV  <-- do not rely on this value for anything but (periodic) metals
  | Electronic free energy        :        -383.28334374 Ha      -10429.67043903 eV

  Derived energy quantities:
  | Kinetic energy                :         382.20667348 Ha       10400.37275040 eV
  | Electrostatic energy          :        -718.76686013 Ha      -19558.64139685 eV
  | Energy correction for multipole
  | error in Hartree potential    :          -0.00453483 Ha          -0.12339901 eV
  | Sum of eigenvalues per atom                           :        -358.91663772 eV
  | Total energy (T->0) per atom                          :        -651.85422613 eV  <-- do not rely on this value for anything but (periodic) metals
  | Electronic free energy per atom                       :        -651.85440244 eV

  Self-consistency convergence accuracy:
  | Change of charge density      : 0.2325E+00
  | Change of sum of eigenvalues  : -.7960E+01 eV
  | Change of total energy        : 0.1982E-01 eV

  End self-consistency iteration #     3       :  max(cpu_time)    wall_clock(cpu1)
  | Time for this iteration                    :        2.163 s           2.162 s
  | Charge density update                      :        0.673 s           0.671 s
  | Density mixing                             :        0.007 s           0.007 s
  | Hartree multipole update                   :        0.005 s           0.005 s
  | Hartree multipole summation                :        0.363 s           0.363 s
  | Integration                                :        1.056 s           1.056 s
  | Solution of K.-S. eqns.                    :        0.057 s           0.058 s
  | Total energy evaluation                    :        0.000 s           0.001 s
------------------------------------------------------------

------------------------------------------------------------
          Begin self-consistency iteration #    4

  Date     :  20150727, Time     :  123616.176
------------------------------------------------------------
  Evaluating new KS density.
  Integration grid: deviation in total charge (<rho> - N_e) =  -8.229506E-11
  Pulay mixing of updated and previous charge densities.

  Evaluating partitioned Hartree potential by multipole expansion.
  | Analytical far-field extrapolation by fixed multipoles:
  | Hartree multipole sum: apparent total charge =  -0.496838E-05
  Summing up the Hartree potential.
  Time summed over all CPUs for potential: real work        2.894 s, elapsed        2.900 s
  | RMS charge density error from multipole expansion :   0.169457E-01

  Integrating Hamiltonian matrix: batch-based integration.
  Time summed over all CPUs for integration: real work        8.227 s, elapsed        8.409 s

  Updating Kohn-Sham eigenvalues, eigenvectors, occupation numbers, and Fermi level.
  Solving generalized eigenproblem
  Updating Kohn-Sham eigenvalues and eigenfunctions.
  Solving real generalised eigenvalue problem by standard LAPACK (fast)
  Determining occupation numbers for Kohn-Sham eigenstates.
  | Chemical potential (Fermi level) in eV                 : -.17615041E+01
  | Error in electron count due to remaining E_F inaccuracy: -.12122499E-08
  | Maximum occupation number of highest empty state:  0.00E+00

  Highest occupied state (VBM) at     -7.10398297 eV
  | Occupation number:      2.00000000

  Lowest unoccupied state (CBM) at    -1.76150410 eV
  | Occupation number:      1.00000000

  Overall HOMO-LUMO gap:      5.34247887 eV.

  Total energy components:
  | Sum of eigenvalues            :        -210.05520178 Ha       -5715.89286174 eV
  | XC energy correction          :         -46.85298842 Ha       -1274.93468278 eV
  | XC potential correction       :          59.89590805 Ha        1629.85058379 eV
  | Free-atom electrostatic energy:        -178.57414086 Ha       -4859.24960859 eV
  | Hartree energy correction     :          -7.69198487 Ha        -209.30955787 eV
  | van der Waals energy corr.    :           0.00000000 Ha           0.00000000 eV
  | Entropy correction            :          -0.00010367 Ha          -0.00282095 eV
  | ---------------------------
  | Total energy                  :        -383.27840787 Ha      -10429.53612719 eV
  | Total energy, T -> 0          :        -383.27851154 Ha      -10429.53894813 eV  <-- do not rely on this value for anything but (periodic) metals
  | Electronic free energy        :        -383.27861521 Ha      -10429.54176908 eV

  Derived energy quantities:
  | Kinetic energy                :         382.32448759 Ha       10403.57863550 eV
  | Electrostatic energy          :        -718.74990704 Ha      -19558.18007991 eV
  | Energy correction for multipole
  | error in Hartree potential    :          -0.00585602 Ha          -0.15935041 eV
  | Sum of eigenvalues per atom                           :        -357.24330386 eV
  | Total energy (T->0) per atom                          :        -651.84618426 eV  <-- do not rely on this value for anything but (periodic) metals
  | Electronic free energy per atom                       :        -651.84636057 eV

  Self-consistency convergence accuracy:
  | Change of charge density      : 0.1043E+00
  | Change of sum of eigenvalues  : 0.2677E+02 eV
  | Change of total energy        : 0.1287E+00 eV

  End self-consistency iteration #     4       :  max(cpu_time)    wall_clock(cpu1)
  | Time for this iteration                    :        2.161 s           2.159 s
  | Charge density update                      :        0.672 s           0.671 s
  | Density mixing                             :        0.009 s           0.008 s
  | Hartree multipole update                   :        0.005 s           0.005 s
  | Hartree multipole summation                :        0.363 s           0.363 s
  | Integration                                :        1.053 s           1.053 s
  | Solution of K.-S. eqns.                    :        0.058 s           0.057 s
  | Total energy evaluation                    :        0.001 s           0.001 s
------------------------------------------------------------

------------------------------------------------------------
          Begin self-consistency iteration #    5

  Date     :  20150727, Time     :  123618.336
------------------------------------------------------------
  Evaluating new KS density.
  Integration grid: deviation in total charge (<rho> - N_e) =  -1.212243E-09
  Pulay mixing of updated and previous charge densities.

  Evaluating partitioned Hartree potential by multipole expansion.
  | Analytical far-field extrapolation by fixed multipoles:
  | Hartree multipole sum: apparent total charge =  -0.510732E-05
  Summing up the Hartree potential.
  Time summed over all CPUs for potential: real work        2.894 s, elapsed        2.900 s
  | RMS charge density error from multipole expansion :   0.177375E-01

  Integrating Hamiltonian matrix: batch-based integration.
  Time summed over all CPUs for integration: real work        8.229 s, elapsed        8.414 s

  Updating Kohn-Sham eigenvalues, eigenvectors, occupation numbers, and Fermi level.
  Solving generalized eigenproblem
  Updating Kohn-Sham eigenvalues and eigenfunctions.
  Solving real generalised eigenvalue problem by standard LAPACK (fast)
  Determining occupation numbers for Kohn-Sham eigenstates.
  | Chemical potential (Fermi level) in eV                 : -.17514940E+01
  | Error in electron count due to remaining E_F inaccuracy: 0.00000000E+00
  | Maximum occupation number of highest empty state:  0.00E+00

  Highest occupied state (VBM) at     -1.75149401 eV
  | Occupation number:      1.00000000

  Lowest unoccupied state (CBM) at    -1.75149401 eV
  | Occupation number:      1.00000000

  Overall HOMO-LUMO gap:      0.00000000 eV.

  Total energy components:
  | Sum of eigenvalues            :        -209.93947480 Ha       -5712.74377053 eV
  | XC energy correction          :         -46.87096480 Ha       -1275.42384515 eV
  | XC potential correction       :          59.91844996 Ha        1630.46398041 eV
  | Free-atom electrostatic energy:        -178.57414086 Ha       -4859.24960859 eV
  | Hartree energy correction     :          -7.81196085 Ha        -212.57427034 eV
  | van der Waals energy corr.    :           0.00000000 Ha           0.00000000 eV
  | Entropy correction            :          -0.00010367 Ha          -0.00282095 eV
  | ---------------------------
  | Total energy                  :        -383.27809135 Ha      -10429.52751420 eV
  | Total energy, T -> 0          :        -383.27819502 Ha      -10429.53033515 eV  <-- do not rely on this value for anything but (periodic) metals
  | Electronic free energy        :        -383.27829869 Ha      -10429.53315610 eV

  Derived energy quantities:
  | Kinetic energy                :         382.31469667 Ha       10403.31221097 eV
  | Electrostatic energy          :        -718.72182321 Ha      -19557.41588002 eV
  | Energy correction for multipole
  | error in Hartree potential    :          -0.00642737 Ha          -0.17489777 eV
  | Sum of eigenvalues per atom                           :        -357.04648566 eV
  | Total energy (T->0) per atom                          :        -651.84564595 eV  <-- do not rely on this value for anything but (periodic) metals
  | Electronic free energy per atom                       :        -651.84582226 eV

  Self-consistency convergence accuracy:
  | Change of charge density      : 0.3353E-01
  | Change of sum of eigenvalues  : 0.3149E+01 eV
  | Change of total energy        : 0.8613E-02 eV

  End self-consistency iteration #     5       :  max(cpu_time)    wall_clock(cpu1)
  | Time for this iteration                    :        2.162 s           2.162 s
  | Charge density update                      :        0.672 s           0.671 s
  | Density mixing                             :        0.010 s           0.010 s
  | Hartree multipole update                   :        0.005 s           0.005 s
  | Hartree multipole summation                :        0.363 s           0.364 s
  | Integration                                :        1.054 s           1.053 s
  | Solution of K.-S. eqns.                    :        0.057 s           0.057 s
  | Total energy evaluation                    :        0.000 s           0.000 s
------------------------------------------------------------

------------------------------------------------------------
          Begin self-consistency iteration #    6

  Date     :  20150727, Time     :  123620.498
------------------------------------------------------------
  Evaluating new KS density.
  Integration grid: deviation in total charge (<rho> - N_e) =   2.131628E-14
  Pulay mixing of updated and previous charge densities.

  Evaluating partitioned Hartree potential by multipole expansion.
  | Analytical far-field extrapolation by fixed multipoles:
  | Hartree multipole sum: apparent total charge =  -0.514473E-05
  Summing up the Hartree potential.
  Time summed over all CPUs for potential: real work        2.894 s, elapsed        2.900 s
  | RMS charge density error from multipole expansion :   0.179153E-01

  Integrating Hamiltonian matrix: batch-based integration.
  Time summed over all CPUs for integration: real work        8.236 s, elapsed        8.417 s

  Updating Kohn-Sham eigenvalues, eigenvectors, occupation numbers, and Fermi level.
  Solving generalized eigenproblem
  Updating Kohn-Sham eigenvalues and eigenfunctions.
  Solving real generalised eigenvalue problem by standard LAPACK (fast)
  Determining occupation numbers for Kohn-Sham eigenstates.
  | Chemical potential (Fermi level) in eV                 : -.17530710E+01
  | Error in electron count due to remaining E_F inaccuracy: -.18855673E-09
  | Maximum occupation number of highest empty state:  0.00E+00

  Highest occupied state (VBM) at     -7.09215056 eV
  | Occupation number:      2.00000000

  Lowest unoccupied state (CBM) at    -1.75307098 eV
  | Occupation number:      1.00000000

  Overall HOMO-LUMO gap:      5.33907958 eV.

  Total energy components:
  | Sum of eigenvalues            :        -209.94923498 Ha       -5713.00935860 eV
  | XC energy correction          :         -46.87136906 Ha       -1275.43484559 eV
  | XC potential correction       :          59.91872459 Ha        1630.47145364 eV
  | Free-atom electrostatic energy:        -178.57414086 Ha       -4859.24960859 eV
  | Hartree energy correction     :          -7.80207785 Ha        -212.30534037 eV
  | van der Waals energy corr.    :           0.00000000 Ha           0.00000000 eV
  | Entropy correction            :          -0.00010367 Ha          -0.00282095 eV
  | ---------------------------
  | Total energy                  :        -383.27809816 Ha      -10429.52769951 eV
  | Total energy, T -> 0          :        -383.27820183 Ha      -10429.53052046 eV  <-- do not rely on this value for anything but (periodic) metals
  | Electronic free energy        :        -383.27830550 Ha      -10429.53334141 eV

  Derived energy quantities:
  | Kinetic energy                :         382.29424531 Ha       10402.75570139 eV
  | Electrostatic energy          :        -718.70097441 Ha      -19556.84855531 eV
  | Energy correction for multipole
  | error in Hartree potential    :          -0.00658664 Ha          -0.17923149 eV
  | Sum of eigenvalues per atom                           :        -357.06308491 eV
  | Total energy (T->0) per atom                          :        -651.84565753 eV  <-- do not rely on this value for anything but (periodic) metals
  | Electronic free energy per atom                       :        -651.84583384 eV

  Self-consistency convergence accuracy:
  | Change of charge density      : 0.8321E-02
  | Change of sum of eigenvalues  : -.2656E+00 eV
  | Change of total energy        : -.1853E-03 eV

  End self-consistency iteration #     6       :  max(cpu_time)    wall_clock(cpu1)
  | Time for this iteration                    :        2.163 s           2.163 s
  | Charge density update                      :        0.670 s           0.670 s
  | Density mixing                             :        0.011 s           0.012 s
  | Hartree multipole update                   :        0.005 s           0.005 s
  | Hartree multipole summation                :        0.363 s           0.363 s
  | Integration                                :        1.054 s           1.054 s
  | Solution of K.-S. eqns.                    :        0.058 s           0.057 s
  | Total energy evaluation                    :        0.000 s           0.001 s
------------------------------------------------------------

------------------------------------------------------------
          Begin self-consistency iteration #    7

  Date     :  20150727, Time     :  123622.661
------------------------------------------------------------
  Evaluating new KS density.
  Integration grid: deviation in total charge (<rho> - N_e) =  -1.885496E-10
  Pulay mixing of updated and previous charge densities.

  Evaluating partitioned Hartree potential by multipole expansion.
  | Analytical far-field extrapolation by fixed multipoles:
  | Hartree multipole sum: apparent total charge =  -0.513381E-05
  Summing up the Hartree potential.
  Time summed over all CPUs for potential: real work        2.894 s, elapsed        2.900 s
  | RMS charge density error from multipole expansion :   0.180279E-01

  Integrating Hamiltonian matrix: batch-based integration.
  Time summed over all CPUs for integration: real work        8.231 s, elapsed        8.411 s

  Updating Kohn-Sham eigenvalues, eigenvectors, occupation numbers, and Fermi level.
  Solving generalized eigenproblem
  Updating Kohn-Sham eigenvalues and eigenfunctions.
  Solving real generalised eigenvalue problem by standard LAPACK (fast)
  Determining occupation numbers for Kohn-Sham eigenstates.
  | Chemical potential (Fermi level) in eV                 : -.17656959E+01
  | Error in electron count due to remaining E_F inaccuracy: 0.22922109E-10
  | Maximum occupation number of highest empty state:  0.00E+00

  Highest occupied state (VBM) at     -1.76569594 eV
  | Occupation number:      1.00000000

  Lowest unoccupied state (CBM) at    -1.06063971 eV
  | Occupation number:      0.00000000

  Overall HOMO-LUMO gap:      0.70505624 eV.

  Total energy components:
  | Sum of eigenvalues            :        -210.00205687 Ha       -5714.44671530 eV
  | XC energy correction          :         -46.86707699 Ha       -1275.31805242 eV
  | XC potential correction       :          59.91275906 Ha        1630.30912316 eV
  | Free-atom electrostatic energy:        -178.57414086 Ha       -4859.24960859 eV
  | Hartree energy correction     :          -7.74757124 Ha        -210.82213984 eV
  | van der Waals energy corr.    :           0.00000000 Ha           0.00000000 eV
  | Entropy correction            :          -0.00010367 Ha          -0.00282095 eV
  | ---------------------------
  | Total energy                  :        -383.27808690 Ha      -10429.52739300 eV
  | Total energy, T -> 0          :        -383.27819057 Ha      -10429.53021395 eV  <-- do not rely on this value for anything but (periodic) metals
  | Electronic free energy        :        -383.27829423 Ha      -10429.53303489 eV

  Derived energy quantities:
  | Kinetic energy                :         382.32285186 Ha       10403.53412506 eV
  | Electrostatic energy          :        -718.73386176 Ha      -19557.74346564 eV
  | Energy correction for multipole
  | error in Hartree potential    :          -0.00683381 Ha          -0.18595751 eV
  | Sum of eigenvalues per atom                           :        -357.15291971 eV
  | Total energy (T->0) per atom                          :        -651.84563837 eV  <-- do not rely on this value for anything but (periodic) metals
  | Electronic free energy per atom                       :        -651.84581468 eV

  Self-consistency convergence accuracy:
  | Change of charge density      : 0.6688E-02
  | Change of sum of eigenvalues  : -.1437E+01 eV
  | Change of total energy        : 0.3065E-03 eV

  End self-consistency iteration #     7       :  max(cpu_time)    wall_clock(cpu1)
  | Time for this iteration                    :        2.165 s           2.165 s
  | Charge density update                      :        0.672 s           0.671 s
  | Density mixing                             :        0.013 s           0.012 s
  | Hartree multipole update                   :        0.005 s           0.006 s
  | Hartree multipole summation                :        0.363 s           0.363 s
  | Integration                                :        1.054 s           1.053 s
  | Solution of K.-S. eqns.                    :        0.057 s           0.057 s
  | Total energy evaluation                    :        0.000 s           0.000 s
------------------------------------------------------------

------------------------------------------------------------
          Begin self-consistency iteration #    8

  Date     :  20150727, Time     :  123624.826
------------------------------------------------------------
  Evaluating new KS density.
  Integration grid: deviation in total charge (<rho> - N_e) =   2.293632E-11
  Pulay mixing of updated and previous charge densities.

  Evaluating partitioned Hartree potential by multipole expansion.
  | Analytical far-field extrapolation by fixed multipoles:
  | Hartree multipole sum: apparent total charge =  -0.509899E-05
  Summing up the Hartree potential.
  Time summed over all CPUs for potential: real work        2.894 s, elapsed        2.900 s
  | RMS charge density error from multipole expansion :   0.180460E-01

  Integrating Hamiltonian matrix: batch-based integration.
  Time summed over all CPUs for integration: real work        8.231 s, elapsed        8.412 s

  Updating Kohn-Sham eigenvalues, eigenvectors, occupation numbers, and Fermi level.
  Solving generalized eigenproblem
  Updating Kohn-Sham eigenvalues and eigenfunctions.
  Solving real generalised eigenvalue problem by standard LAPACK (fast)
  Determining occupation numbers for Kohn-Sham eigenstates.
  | Chemical potential (Fermi level) in eV                 : -.17723799E+01
  | Error in electron count due to remaining E_F inaccuracy: 0.56274985E-11
  | Maximum occupation number of highest empty state:  0.00E+00

  Highest occupied state (VBM) at     -1.77237989 eV
  | Occupation number:      1.00000000

  Lowest unoccupied state (CBM) at    -1.06310273 eV
  | Occupation number:      0.00000000

  Overall HOMO-LUMO gap:      0.70927717 eV.

  Total energy components:
  | Sum of eigenvalues            :        -210.02837854 Ha       -5715.16296435 eV
  | XC energy correction          :         -46.86519407 Ha       -1275.26681541 eV
  | XC potential correction       :          59.91019468 Ha        1630.23934302 eV
  | Free-atom electrostatic energy:        -178.57414086 Ha       -4859.24960859 eV
  | Hartree energy correction     :          -7.72055940 Ha        -210.08711030 eV
  | van der Waals energy corr.    :           0.00000000 Ha           0.00000000 eV
  | Entropy correction            :          -0.00010367 Ha          -0.00282095 eV
  | ---------------------------
  | Total energy                  :        -383.27807817 Ha      -10429.52715563 eV
  | Total energy, T -> 0          :        -383.27818184 Ha      -10429.52997658 eV  <-- do not rely on this value for anything but (periodic) metals
  | Electronic free energy        :        -383.27828551 Ha      -10429.53279753 eV

  Derived energy quantities:
  | Kinetic energy                :         382.33402637 Ha       10403.83819888 eV
  | Electrostatic energy          :        -718.74691047 Ha      -19558.09853910 eV
  | Energy correction for multipole
  | error in Hartree potential    :          -0.00691347 Ha          -0.18812506 eV
  | Sum of eigenvalues per atom                           :        -357.19768527 eV
  | Total energy (T->0) per atom                          :        -651.84562354 eV  <-- do not rely on this value for anything but (periodic) metals
  | Electronic free energy per atom                       :        -651.84579985 eV

  Self-consistency convergence accuracy:
  | Change of charge density      : 0.2778E-02
  | Change of sum of eigenvalues  : -.7162E+00 eV
  | Change of total energy        : 0.2374E-03 eV

  End self-consistency iteration #     8       :  max(cpu_time)    wall_clock(cpu1)
  | Time for this iteration                    :        2.165 s           2.164 s
  | Charge density update                      :        0.670 s           0.669 s
  | Density mixing                             :        0.015 s           0.015 s
  | Hartree multipole update                   :        0.005 s           0.005 s
  | Hartree multipole summation                :        0.363 s           0.363 s
  | Integration                                :        1.053 s           1.053 s
  | Solution of K.-S. eqns.                    :        0.057 s           0.058 s
  | Total energy evaluation                    :        0.001 s           0.001 s
------------------------------------------------------------

------------------------------------------------------------
          Begin self-consistency iteration #    9

  Date     :  20150727, Time     :  123626.991
------------------------------------------------------------
  Evaluating new KS density.
  Integration grid: deviation in total charge (<rho> - N_e) =   5.634604E-12
  Pulay mixing of updated and previous charge densities.

  Evaluating partitioned Hartree potential by multipole expansion.
  | Analytical far-field extrapolation by fixed multipoles:
  | Hartree multipole sum: apparent total charge =  -0.509356E-05
  Summing up the Hartree potential.
  Time summed over all CPUs for potential: real work        2.894 s, elapsed        2.900 s
  | RMS charge density error from multipole expansion :   0.180285E-01

  Integrating Hamiltonian matrix: batch-based integration.
  Time summed over all CPUs for integration: real work        8.235 s, elapsed        8.410 s

  Updating Kohn-Sham eigenvalues, eigenvectors, occupation numbers, and Fermi level.
  Solving generalized eigenproblem
  Updating Kohn-Sham eigenvalues and eigenfunctions.
  Solving real generalised eigenvalue problem by standard LAPACK (fast)
  Determining occupation numbers for Kohn-Sham eigenstates.
  | Chemical potential (Fermi level) in eV                 : -.17739706E+01
  | Error in electron count due to remaining E_F inaccuracy: 0.42632564E-12
  | Maximum occupation number of highest empty state:  0.00E+00

  Highest occupied state (VBM) at     -1.77397058 eV
  | Occupation number:      1.00000000

  Lowest unoccupied state (CBM) at    -1.06408847 eV
  | Occupation number:      0.00000000

  Overall HOMO-LUMO gap:      0.70988211 eV.

  Total energy components:
  | Sum of eigenvalues            :        -210.03497150 Ha       -5715.34236792 eV
  | XC energy correction          :         -46.86451368 Ha       -1275.24830127 eV
  | XC potential correction       :          59.90930012 Ha        1630.21500070 eV
  | Free-atom electrostatic energy:        -178.57414086 Ha       -4859.24960859 eV
  | Hartree energy correction     :          -7.71375035 Ha        -209.90182663 eV
[...]
   Van der Waals               : 0.146546E-02 0.950844E-03 0.108619E-02
   ----------------------------------------------------------------
   Total forces(   7)            : -.355368E+00 0.456331E+00 -.293238E+01
  atom #    8
   Hellmann-Feynman + Multipole  : -.451990E+01 0.225905E+01 -.946156E+01
   Pulay + GGA                   : 0.620620E+01 -.283530E+01 0.102162E+02
   Van der Waals               : 0.162400E-02 0.161216E-02 -.339467E-02
   ----------------------------------------------------------------
   Total forces(   8)            : 0.168793E+01 -.574637E+00 0.751229E+00
  atom #    9
   Hellmann-Feynman + Multipole  : -.332336E+00 0.485278E-01 -.420988E+00
   Pulay + GGA                   : 0.311109E-01 0.428098E-01 0.739822E-01
   Van der Waals               : 0.103765E-02 0.438354E-02 0.224443E-02
   ----------------------------------------------------------------
   Total forces(   9)            : -.300187E+00 0.957212E-01 -.344762E+00
  atom #   10
   Hellmann-Feynman + Multipole  : -.150712E+01 0.775524E+00 -.362692E+00
   Pulay + GGA                   : 0.108956E+00 -.668688E-01 0.204832E-01
   Van der Waals               : -.148679E-02 0.239408E-02 0.185274E-02
   ----------------------------------------------------------------
   Total forces(  10)            : -.139965E+01 0.711050E+00 -.340356E+00
  atom #   11
   Hellmann-Feynman + Multipole  : 0.357286E+01 -.818225E+01 -.851475E+01
   Pulay + GGA                   : -.489447E+01 0.928033E+01 0.990805E+01
   Van der Waals               : -.168160E-02 -.379565E-02 -.716470E-02
   ----------------------------------------------------------------
   Total forces(  11)            : -.132329E+01 0.109428E+01 0.138614E+01
  atom #   12
   Hellmann-Feynman + Multipole  : -.351409E+00 0.259416E+00 -.184563E+01
   Pulay + GGA                   : 0.162884E-01 -.162050E-01 0.145995E+00
   Van der Waals               : 0.586558E-04 -.872352E-03 -.202783E-02
   ----------------------------------------------------------------
   Total forces(  12)            : -.335062E+00 0.242338E+00 -.170166E+01
  atom #   13
   Hellmann-Feynman + Multipole  : 0.149807E+01 -.157222E+01 0.487744E+00
   Pulay + GGA                   : -.114595E+00 0.100748E+00 -.264985E-01
   Van der Waals               : -.393514E-03 -.290160E-02 -.585407E-02
   ----------------------------------------------------------------
   Total forces(  13)            : 0.138308E+01 -.147437E+01 0.455391E+00
  atom #   14
   Hellmann-Feynman + Multipole  : -.300218E+01 -.776673E+00 -.138371E+02
   Pulay + GGA                   : 0.455800E+01 0.129258E+01 0.114908E+02
   Van der Waals               : -.293187E-02 -.115615E-03 -.703623E-02
   ----------------------------------------------------------------
   Total forces(  14)            : 0.155289E+01 0.515793E+00 -.235335E+01
  atom #   15
   Hellmann-Feynman + Multipole  : -.323121E+00 -.153034E+00 0.238077E+00
   Pulay + GGA                   : 0.911235E-01 0.641803E-01 0.524136E-01
   Van der Waals               : -.140323E-02 -.222321E-02 -.218991E-02
   ----------------------------------------------------------------
   Total forces(  15)            : -.233401E+00 -.910770E-01 0.288300E+00
  atom #   16
   Hellmann-Feynman + Multipole  : -.928330E+00 -.429470E+00 0.173409E+01
   Pulay + GGA                   : -.468992E-01 -.139609E-01 0.648595E-01
   Van der Waals               : -.356735E-02 -.293459E-02 -.525990E-02
   ----------------------------------------------------------------
   Total forces(  16)            : -.978797E+00 -.446365E+00 0.179369E+01
  Timings for vdw_correction_hirshfeld (Tkatchenko-Scheffler 2009):
  | CPU time:        5.752 s, Wall clock time:        5.755 s.
  Removing unitary transformations (pure translations, rotations) from forces on atoms.
  Atomic forces before filtering:
  | Net force on center of mass :  0.532624E-02 -.246573E-02 0.466718E-02 eV/A
  | Net torque on center of mass:  0.585027E-03 0.418288E-02 0.130227E-02 eV
  Atomic forces after filtering:
  | Net force on center of mass :  -.178406E-15 -.892031E-16 -.107044E-14 eV/A
  | Net torque on center of mass:  0.000000E+00 -.169935E-14 -.849676E-15 eV
 
  Energy and forces in a compact form:
  | Total energy uncorrected      :         -0.104296177269301E+05 eV
  | Total energy corrected        :         -0.104296205478780E+05 eV  <-- do not rely on this value for anything but (periodic) metals
  | Electronic free energy        :         -0.104296233688259E+05 eV
  Total atomic forces (unitary forces cleaned) [eV/Ang]:
  |   1         -0.149005958172027E+01          0.611329872277331E+00          0.697987903228793E-01
  |   2          0.176524730632172E+00         -0.646246341014971E+00          0.254383902591073E+00
  |   3          0.990635395929070E+00          0.364907410042405E-01          0.499142793407548E-01
  |   4          0.146374547412580E+00          0.572073495640894E-01         -0.428421449286259E+00
  |   5          0.517849494871852E+00         -0.596310279797752E+00          0.309985508676583E+01
  |   6         -0.358897978191338E-01          0.706898027383826E-02         -0.451323625346381E-01
  |   7         -0.355528469450177E+00          0.456529029184180E+00         -0.293278997420112E+01
  |   8          0.168762121909065E+01         -0.574557922577695E+00          0.751037010555639E+00
  |   9         -0.300511554981927E+00          0.958064619856507E-01         -0.344957405727313E+00
  |  10         -0.139998289400592E+01          0.711099791893457E+00         -0.340497860991665E+00
  |  11         -0.132375084558991E+01          0.109448295217784E+01          0.138581427046929E+01
  |  12         -0.335576931394986E+00          0.242548048354000E+00         -0.170197411078091E+01
  |  13          0.138265426749209E+01         -0.147414695678570E+01          0.455023122516528E+00
  |  14          0.155255691550224E+01          0.515907293822681E+00         -0.235358253278871E+01
  |  15         -0.233735542427960E+00         -0.909867459512363E-01          0.288101012572221E+00
  |  16         -0.979180953540380E+00         -0.446222274409946E+00          0.179342822117640E+01
 
  ------------------------------------ 
  Start decomposition of the XC Energy 
  ------------------------------------ 
  Hartree-Fock part   :          0.000000000 Ha              0.000000000 eV
  ------------------------------------ 
  X Energy            :        -45.204031879 Ha          -1230.064292409 eV
  C Energy GGA        :         -1.660414925 Ha            -45.182188954 eV
  Total XC Energy     :        -46.864446804 Ha          -1275.246481363 eV
  LDA X and C from self-consistent density 
  X Energy LDA        :        -40.753282317 Ha          -1108.953234776 eV
  C Energy LDA        :         -3.338659868 Ha            -90.849557394 eV
  ------------------------------------ 
  End decomposition of the XC Energy 
  ------------------------------------ 
  Performing Hirshfeld analysis of fragment charges and moments.
  ----------------------------------------------------------------------
  | Atom     1: O
  |   Hirshfeld charge        :     -0.13489606
  |   Free atom volume        :     23.95238533
  |   Hirshfeld volume        :     21.78081985
  |   Hirshfeld dipole vector :      0.01227098       0.03446802       0.01551276
  |   Hirshfeld dipole moment :      0.03973999
  |   Hirshfeld second moments:      0.07227010      -0.00702854      -0.00810530
  |                                 -0.00702854       0.03730055      -0.02513606
  |                                 -0.00810530      -0.02513606       0.06836235
  ----------------------------------------------------------------------
  | Atom     2: H
  |   Hirshfeld charge        :      0.11156441
  |   Free atom volume        :     10.44207651
  |   Hirshfeld volume        :      9.81475465
  |   Hirshfeld dipole vector :      0.00464321       0.01336703      -0.00873514
  |   Hirshfeld dipole moment :      0.01662948
  |   Hirshfeld second moments:      0.04219841       0.01931339       0.00428445
  |                                  0.01931339       0.02602836       0.01008300
  |                                  0.00428445       0.01008300       0.05618933
  ----------------------------------------------------------------------
  | Atom     3: H
  |   Hirshfeld charge        :      0.10364834
  |   Free atom volume        :     10.44207651
  |   Hirshfeld volume        :      9.49257391
  |   Hirshfeld dipole vector :      0.01560458       0.01017797       0.00298765
  |   Hirshfeld dipole moment :      0.01886849
  |   Hirshfeld second moments:      0.02163357      -0.01791919      -0.00066472
  |                                 -0.01791919       0.05612240       0.00509626
  |                                 -0.00066472       0.00509626       0.06203668
  ----------------------------------------------------------------------
  | Atom     4: H
  |   Hirshfeld charge        :      0.11814845
  |   Free atom volume        :     10.44207651
  |   Hirshfeld volume        :     11.71171082
  |   Hirshfeld dipole vector :     -0.00060514       0.00412382       0.02699702
  |   Hirshfeld dipole moment :      0.02731687
  |   Hirshfeld second moments:      0.02418963       0.00568973       0.02126961
  |                                  0.00568973       0.02894811       0.00699402
  |                                  0.02126961       0.00699402      -0.01163283
  ----------------------------------------------------------------------
  | Atom     5: O
  |   Hirshfeld charge        :     -0.21270618
  |   Free atom volume        :     23.95238533
  |   Hirshfeld volume        :     22.87418176
  |   Hirshfeld dipole vector :      0.04120428      -0.00366698      -0.02596141
  |   Hirshfeld dipole moment :      0.04883886
  |   Hirshfeld second moments:     -0.01254726       0.00342815       0.04376472
  |                                  0.00342815       0.04979195       0.00674131
  |                                  0.04376472       0.00674131       0.04332331
  ----------------------------------------------------------------------
  | Atom     6: H
  |   Hirshfeld charge        :      0.10047830
  |   Free atom volume        :     10.44207651
  |   Hirshfeld volume        :     12.13641678
  |   Hirshfeld dipole vector :      0.03801737       0.02474917       0.01607666
  |   Hirshfeld dipole moment :      0.04812797
  |   Hirshfeld second moments:     -0.00251862      -0.01325144       0.02559172
  |                                 -0.01325144      -0.00205762      -0.00703846
  |                                  0.02559172      -0.00703846       0.01991215
  ----------------------------------------------------------------------
  | Atom     7: H
  |   Hirshfeld charge        :      0.10872658
  |   Free atom volume        :     10.44207651
  |   Hirshfeld volume        :     11.67976797
  |   Hirshfeld dipole vector :     -0.00802159      -0.00606126      -0.06419842
  |   Hirshfeld dipole moment :      0.06498094
  |   Hirshfeld second moments:      0.01162369       0.00104600       0.01973244
  |                                  0.00104600       0.03332413       0.01228283
  |                                  0.01973244       0.01228283       0.01551693
  ----------------------------------------------------------------------
  | Atom     8: O
  |   Hirshfeld charge        :     -0.23331361
  |   Free atom volume        :     23.95238533
  |   Hirshfeld volume        :     22.38215890
  |   Hirshfeld dipole vector :     -0.00943444      -0.01661440       0.03832801
  |   Hirshfeld dipole moment :      0.04282620
  |   Hirshfeld second moments:      0.05563353      -0.01668671       0.00745659
  |                                 -0.01668671       0.02886023       0.03694677
  |                                  0.00745659       0.03694677      -0.00790625
  ----------------------------------------------------------------------
  | Atom     9: H
  |   Hirshfeld charge        :      0.09400934
  |   Free atom volume        :     10.44207651
  |   Hirshfeld volume        :      9.49561935
  |   Hirshfeld dipole vector :      0.00951232       0.01899750       0.03655465
  |   Hirshfeld dipole moment :      0.04228039
  |   Hirshfeld second moments:      0.07445607       0.00339628       0.00356339
  |                                  0.00339628       0.03503265      -0.00791431
  |                                  0.00356339      -0.00791431       0.02348658
  ----------------------------------------------------------------------
  | Atom    10: H
  |   Hirshfeld charge        :      0.12000013
  |   Free atom volume        :     10.44207651
  |   Hirshfeld volume        :     10.12171183
  |   Hirshfeld dipole vector :      0.06233935      -0.04198969       0.00911008
  |   Hirshfeld dipole moment :      0.07571210
  |   Hirshfeld second moments:      0.04820733       0.00505148       0.00178375
  |                                  0.00505148       0.04437669       0.02028686
  |                                  0.00178375       0.02028686       0.04643614
  ----------------------------------------------------------------------
  | Atom    11: O
  |   Hirshfeld charge        :     -0.26221926
  |   Free atom volume        :     23.95238533
  |   Hirshfeld volume        :     23.69384140
  |   Hirshfeld dipole vector :      0.02542317       0.05193406       0.01528010
  |   Hirshfeld dipole moment :      0.05980773
  |   Hirshfeld second moments:     -0.00541371      -0.03956596      -0.00215942
  |                                 -0.03956596      -0.04949743      -0.02936648
  |                                 -0.00215942      -0.02936648       0.02999924
  ----------------------------------------------------------------------
  | Atom    12: H
  |   Hirshfeld charge        :      0.09903469
  |   Free atom volume        :     10.44207651
  |   Hirshfeld volume        :     11.18623214
  |   Hirshfeld dipole vector :      0.02356080      -0.00618010       0.07441433
  |   Hirshfeld dipole moment :      0.07829941
  |   Hirshfeld second moments:      0.03106645      -0.01959125      -0.00163308
  |                                 -0.01959125       0.01021257      -0.02094547
  |                                 -0.00163308      -0.02094547       0.03073467
  ----------------------------------------------------------------------
  | Atom    13: H
  |   Hirshfeld charge        :      0.08369123
  |   Free atom volume        :     10.44207651
  |   Hirshfeld volume        :     12.17815577
  |   Hirshfeld dipole vector :     -0.02240990       0.05001855      -0.00571267
  |   Hirshfeld dipole moment :      0.05510620
  |   Hirshfeld second moments:     -0.00252460      -0.00961951      -0.01491965
  |                                 -0.00961951      -0.01851965      -0.00467925
  |                                 -0.01491965      -0.00467925       0.02423389
  ----------------------------------------------------------------------
  | Atom    14: O
  |   Hirshfeld charge        :     -0.28397920
  |   Free atom volume        :     23.95238533
  |   Hirshfeld volume        :     22.63068746
  |   Hirshfeld dipole vector :      0.02142634      -0.02205725       0.03549327
  |   Hirshfeld dipole moment :      0.04696150
  |   Hirshfeld second moments:      0.02904194       0.04490151      -0.01785378
  |                                  0.04490151       0.00241922       0.02635698
  |                                 -0.01785378       0.02635698       0.00902747
  ----------------------------------------------------------------------
  | Atom    15: H
  |   Hirshfeld charge        :      0.11815433
  |   Free atom volume        :     10.44207651
  |   Hirshfeld volume        :      9.52844520
  |   Hirshfeld dipole vector :      0.07654680       0.04574531       0.02568166
  |   Hirshfeld dipole moment :      0.09279868
  |   Hirshfeld second moments:      0.05372407       0.01481360      -0.01452868
  |                                  0.01481360       0.05471376       0.00150861
  |                                 -0.01452868       0.00150861       0.06163326
  ----------------------------------------------------------------------
  | Atom    16: H
  |   Hirshfeld charge        :      0.06969406
  |   Free atom volume        :     10.44207651
  |   Hirshfeld volume        :      9.80959124
  |   Hirshfeld dipole vector :     -0.01582245      -0.01655043       0.02920609
  |   Hirshfeld dipole moment :      0.03711148
  |   Hirshfeld second moments:      0.03923234       0.00264198       0.01763285
  |                                  0.00264198       0.03129815       0.01877412
  |                                  0.01763285       0.01877412       0.03442757
  ----------------------------------------------------------------------


------------------------------------------------------------------------------
  Final output of selected total energy values:

  The following output summarizes some interesting total energy values
  at the end of a run (AFTER all relaxation, molecular dynamics, etc.).

  | Total energy of the DFT / Hartree-Fock s.c.f. calculation      :         -10429.617726930 eV
  | Final zero-broadening corrected energy (caution - metals only) :         -10429.620547878 eV
  | For reference only, the value of 1 Hartree used in FHI-aims is :             27.211384500 eV

  Before relying on these values, please be sure to understand exactly which
  total energy value is referred to by a given number. Different objects may
  all carry the same name 'total energy'. Definitions:

  Total energy of the DFT / Hartree-Fock s.c.f. calculation:
  | Note that this energy does not include ANY quantities calculated after the
  | s.c.f. cycle, in particular not ANY RPA, MP2, etc. many-body perturbation terms.

  Final zero-broadening corrected energy:
  | For metallic systems only, a broadening of the occupation numbers at the Fermi
  | level can be extrapolated back to zero broadening by an electron-gas inspired
  | formula. For all systems that are not real metals, this value can be
  | meaningless and should be avoided.

------------------------------------------------------------------------------

------------------------------------------------------------
          Leaving FHI-aims.
          Date     :  20150727, Time     :  123648.718

          Computational steps:
          | Number of self-consistency cycles          :           16

          Detailed time accounting                     :  max(cpu_time)    wall_clock(cpu1)
          | Total time                                 :       41.747 s          41.774 s
          | Preparation time                           :        0.172 s           0.474 s
          | Grid partitioning                          :        0.151 s           0.151 s
          | Preloading free-atom quantities on grid    :        0.013 s           0.013 s
          | Free-atom superposition energy             :        0.073 s           0.072 s
          | Total time for integrations                :       18.509 s          18.507 s
          | Total time for solution of K.-S. equations :        1.130 s           1.131 s
          | Total time for density & force components  :       13.723 s          13.712 s
          | Total time for mixing                      :        0.215 s           0.214 s
          | Total time for Hartree multipole update    :        0.080 s           0.082 s
          | Total time for Hartree multipole sum       :        7.016 s           7.021 s
          | Total time for total energy evaluation     :        0.009 s           0.020 s
          | Total time for scaled ZORA corrections     :        0.000 s           0.000 s
          | Total time for TS (2009) vdW correction    :        0.062 s           0.066 s

          Have a nice day.
------------------------------------------------------------
