  MPI-parallelism will be employed.
------------------------------------------------------------
          Invoking FHI-aims ...
          Version 081213
          Compiled on 2013/08/29 at 17:41:06 on host generoso.

          When using FHI-aims, please cite the following reference:

          Volker Blum, Ralf Gehrke, Felix Hanke, Paula Havu,
          Ville Havu, Xinguo Ren, Karsten Reuter, and Matthias Scheffler,
          'Ab Initio Molecular Simulations with Numeric Atom-Centered Orbitals: FHI-aims',
          Computer Physics Communications 180, 2175-2196 (2009)

          For any questions about FHI-aims, please visit the aimsclub website
          with its forums and wiki. Contributions to both the forums and the
          wiki are warmly encouraged - they are for you, and everyone is welcome there.

------------------------------------------------------------

  Date     :  20150727, Time     :  130518.216
  Time zero on CPU 1             :   0.399930000000000E-01  s.
  Internal wall clock time zero  :           207234318.216  s.

  Using        8 parallel tasks.
  Task        0 on host gen59 reporting.
  Task        1 on host gen59 reporting.
  Task        2 on host gen59 reporting.
  Task        3 on host gen59 reporting.
  Task        4 on host gen59 reporting.
  Task        5 on host gen59 reporting.
  Task        6 on host gen59 reporting.
  Task        7 on host gen59 reporting.

  Performing system and environment tests:
  | Environment variable OMP_NUM_THREADS correctly set to 1.
  | Checking for scalapack...
  | No scalapack compiled in.

  Obtaining array dimensions for all initial allocations:
  
  -----------------------------------------------------------------------
  Parsing control.in (first pass over file, find array dimensions only).
  The contents of control.in will be repeated verbatim below
  unless switched off by setting 'verbatim_writeout .false.' .
  in the first line of control.in .
  -----------------------------------------------------------------------
  
  #########################################################################################
  #
  #  Volker Blum, FHI 2008 : Test run input file control.in
  #
  #########################################################################################
  #
  #  Physical model
  #
    xc                 rpbe
    spin               none
    relativistic       atomic_zora scalar
    charge             0.
   vdw_correction_hirshfeld
  #
  #  SCF convergence
  #
    occupation_type    gaussian 0.01
    mixer              pulay
      n_max_pulay        10
      charge_mix_param   0.1
    sc_accuracy_rho    5E-5
    sc_accuracy_eev    5E-3
    sc_accuracy_etot   5E-6
    sc_iter_limit      3000
  #
  #  Eigenvalue solver
  #
    KS_method          lapack
      empty_states       8
      basis_threshold    0.e-5
  #
  #  Efficiency
  #
  #   all previous settings are now default, except stratmann still
  #   undecided. Continue to handle stratmann with care, if at all.
  #
  #  partition_type stratmann
    partition_type rho_r2
  #  hartree_partition_type stratmann
  #
  #  Oprions for large clusters (100's of atoms: memory saving / better scaling)
  #
  # for periodic systems:
  #
    density_update_method orbital
    packed_matrix_format none
  #  k_grid 6 6 6
  #  output k_eigenvalue 1
  #  distributed_spline_storage .true.
  #
  #  Relaxation
  #
  #  relax_geometry   bfgs 5.e-3
    sc_accuracy_forces 5.E-4
    final_forces_cleaned .true.
  #
  #  Output options
  #
  #  output mulliken
    output Hirshfeld
  #  output dipole
  
  #harmonic_length_scale 0.001
  
  ################################################################################
  #
  #  FHI-aims code project
  #  VB, Fritz-Haber Institut, 2007
  #
  #  Suggested "safe" defaults for H atom (to be pasted into control.in file)
  #  Basis constructed for a non-relativistic H2 molecule using the
  #  PW-LDA functional.
  #
  ################################################################################
    species        H
  #     global species definitions
      nucleus             1
      cut_pot             4.0  2.0  1.0
      cut_free_atom       finite 8.0
      logarithmic         0.00010000 100.00  1.0123
      basis_dep_cutoff    1d-4  # 1d-4 is safe default - please check 5d-4 if you wish!
      radial_base         24 7.0
      radial_multiplier   2
      angular_grids       specified
        division   0.2783  110
        division   0.3822  194
        division   0.5626  302
  #      division   0.5922  434
  #      division   0.6227  590
  #      division   0.7206  770
        outer_grid  302
      l_hartree           4
  ################################################################################
  #
  #  Definition of "minimal" basis
  #
  ################################################################################
  #     valence basis states
      valence      1  s   1.
  #     ion occupancy
      ion_occ      1  s   0.5
  ################################################################################
  #
  #  Suggested additional basis functions. For production calculations,
  #  uncomment them one after another (the most important basis functions are
  #  listed first).
  #
  ################################################################################
  #  "First tier" - improvements: -1014.90 meV to -62.69 meV
       hydro 2 s 2.1
       hydro 2 p 3.5
  #  "Second tier" - improvements: -12.89 meV to -1.83 meV
       hydro 1 s 0.85
       hydro 2 p 3.7
       hydro 2 s 1.2
       hydro 3 d 7
  #  "Third tier" - improvements: -0.25 meV to -0.12 meV
  #     hydro 4 f 11.2
  #     hydro 3 p 4.8
  #     hydro 4 d 9
  #     hydro 3 s 3.2
  
  ################################################################################
  #
  #  FHI-aims code project
  #  VB, Fritz-Haber Institut, 2007
  #
  #  Suggested "safe" defaults for O atom (to be pasted into control.in file)
  #  All values have been tested for a non-relativistic, non-spinpolarized O2
  #  molecule using the PW-LDA functional. Validity for PBE is expected.
  #
  #  Constructed for dimers: 1.0 A, 1.208 A, 1.5 A, 2.0 A, 3.0 A
  #
  ################################################################################
    species        O
  #     global species definitions
      nucleus             8
      mass                15.9994
      l_hartree           4
      cut_pot             4.0  2.0  1.0
      cut_free_atom       finite 8.0
      basis_dep_cutoff    1d-4  # 1d-4 is safe default - please check 5d-4 if you wish!
      logarithmic         0.00010000 100.00  1.0123
      radial_base         36 7.0
      radial_multiplier   2
       angular_grids specified
        division   0.4087  110
        division   0.5181  194
        division   0.6184  302
  #      division   0.7315  434
  #      division   0.7934  590
  #      division   0.9656  770
  #      division   1.4041  974
  #      outer_grid 974
        outer_grid 302
  ################################################################################
  #
  #  Definition of "minimal" basis
  #
  ################################################################################
  #     valence basis states
      valence      2  s   2.
      valence      2  p   4.
  #     ion occupancy
      ion_occ      2  s   1.
      ion_occ      2  p   3.
  ################################################################################
  #
  #  Suggested additional basis functions. For production calculations,
  #  uncomment them one after another (the most important basis functions are
  #  listed first).
  #
  ################################################################################
  #  "First tier" - improvements: -699.05 meV to -159.38 meV
       hydro 2 p 1.8
       hydro 3 d 7.6
       hydro 3 s 6.4
  #  "Second tier" - improvements: -49.91 meV to -5.39 meV
       hydro 4 f 11.6
       hydro 3 p 6.2
       hydro 3 d 5.6
       hydro 5 g 17.6
       hydro 1 s 0.75
  #  "Third tier" - improvements: -2.83 meV to -0.50 meV
  #     ionic 2 p auto
  #     hydro 4 f 10.8
  #     hydro 4 d 4.7
  #     hydro 2 s 6.8
  #  "Fourth tier" - improvements: -0.40 meV to -0.12 meV
  #     hydro 3 p 5
  #     hydro 3 s 3.3
  #     hydro 5 g 15.6
  #     hydro 4 f 17.6
  #     hydro 4 d 14
  # Further basis functions - -0.08 meV and below
  #     hydro 3 s 2.1
  #     hydro 4 d 11.6
  #     hydro 3 p 16
  #     hydro 2 s 17.2
  
  
  -----------------------------------------------------------------------
  Completed first pass over input file control.in .
  -----------------------------------------------------------------------
  
  
  -----------------------------------------------------------------------
  Parsing geometry.in (first pass over file, find array dimensions only).
  The contents of geometry.in will be repeated verbatim below
  unless switched off by setting 'verbatim_writeout .false.' .
  in the first line of geometry.in .
  -----------------------------------------------------------------------
  
  atom      -4.053030000      0.065001000     -1.525160000  O
  atom      -4.566710000      0.974813000     -1.912820000  H
  atom      -3.067820000      0.330172000     -1.477310000  H
  atom      -4.370360000     -0.049164000     -0.572274000  H
  atom      -4.066610000      4.258280000     -0.900064000  O
  atom      -3.224110000      3.876870000     -0.569443000  H
  atom      -3.737450000      5.116530000     -1.322720000  H
  
  -----------------------------------------------------------------------
  Completed first pass over input file geometry.in .
  -----------------------------------------------------------------------
  
 
  Basic array size parameters: 
  | Number of species                 :        2
  | Number of atoms                   :        7
  | Max. basis fn. angular momentum   :        4
  | Max. atomic/ionic basis occupied n:        2
  | Max. number of basis fn. types    :        2
  | Max. radial fns per species/type  :        8
  | Max. logarithmic grid size        :     1301
  | Max. radial integration grid size :       73
  | Max. angular integration grid size:      302
  | Max. angular grid division number :        8
  | Radial grid for Hartree potential :     1301
  | Number of spin channels           :        1

------------------------------------------------------------
          Reading file control.in.
------------------------------------------------------------
  XC: Using RPBE gradient-corrected functionals.
  Spin treatment: No spin polarisation.
  Scalar relativistic treatment of kinetic energy: on-site free-atom approximation to ZORA.
  Charge =   0.000000E+00: Neutral system requested explicitly.
  Using non-empirical van der Waals correction (Hirshfeld partitioning):
  Occupation type: Gaussian broadening, width =   0.100000E-01 eV.
  Using pulay charge density mixing.
  Pulay mixing - number of memorized iterations:   10
  Charge density mixing - mixing parameter:     0.1000
  Convergence accuracy of self-consistent charge density: 0.5000E-04
  Convergence accuracy of sum of eigenvalues: 0.5000E-02
  Convergence accuracy of total energy: 0.5000E-05
  Maximum number of s.-c. iterations  :  3000
  Kohn-Sham eigenvalues and eigenfunctions calculated by lapack diagonalisation (D&C).
  Number of empty states per atom:        8
  Threshold for basis singularities: 0.0000E+00
  Partition function in integrals calculations: rho / r^2
 Using packed matrix format           0
  Convergence accuracy of forces: 0.5000E-03
  Cleaning forces before final output.
  Hirshfeld charge analysis will be performed.
 
  Reading configuration options for species H                   .
  | Found nuclear charge :   1.0000
  | Found cutoff potl. onset [A], width [A], scale factor :    4.00000    2.00000    1.00000
  | Found cutoff specification for free atom: Cutoff potential begins at    8.00000 A.
  | Found logarithmic grid data [bohr] : 0.1000E-03 0.1000E+03 0.1012E+01
  | Threshold for basis-dependent cutoff potential is   0.100000E-03
  | Found data for basic radial integration grid :    24 points, outermost radius =    7.000 A
  | Found multiplier for basic radial grid :   2
  | Found angular grid specification: user-specified.
  | Specified grid contains     4 separate shells.
  | Check grid settings after all constraints further below.
  | Found l_max for Hartree potential  :   4
  | Found free-atom valence shell :  1 s   1.000
  | No ionic wave fns used. Skipping ion_occ.
  | Found hydrogenic basis function :  2 s   2.100
  | Found hydrogenic basis function :  2 p   3.500
  | Found hydrogenic basis function :  1 s   0.850
  | Found hydrogenic basis function :  2 p   3.700
  | Found hydrogenic basis function :  2 s   1.200
  | Found hydrogenic basis function :  3 d   7.000
  Species H                   : Missing cutoff potential type.
  Defaulting to exp(1/x)/(1-x)^2 type cutoff potential.
  Species H : On-site basis accuracy parameter (for Gram-Schmidt orthonormalisation) not specified.
  Using default value basis_acc =  0.1000000E-03.
  Species H                   : Using default innermost maximum threshold i_radial=  2 for radial functions.
  Species H                   : Basic radial grid will be enhanced according to radial_multiplier =   2, to contain    49 grid points.
 
  Reading configuration options for species O                   .
  | Found nuclear charge :   8.0000
  | Found atomic mass :    15.9994000000000      amu
  | Found l_max for Hartree potential  :   4
  | Found cutoff potl. onset [A], width [A], scale factor :    4.00000    2.00000    1.00000
  | Found cutoff specification for free atom: Cutoff potential begins at    8.00000 A.
  | Threshold for basis-dependent cutoff potential is   0.100000E-03
  | Found logarithmic grid data [bohr] : 0.1000E-03 0.1000E+03 0.1012E+01
  | Found data for basic radial integration grid :    36 points, outermost radius =    7.000 A
  | Found multiplier for basic radial grid :   2
  | Found angular grid specification: user-specified.
  | Specified grid contains     4 separate shells.
  | Check grid settings after all constraints further below.
  | Found free-atom valence shell :  2 s   2.000
  | Found free-atom valence shell :  2 p   4.000
  | No ionic wave fns used. Skipping ion_occ.
  | No ionic wave fns used. Skipping ion_occ.
  | Found hydrogenic basis function :  2 p   1.800
  | Found hydrogenic basis function :  3 d   7.600
  | Found hydrogenic basis function :  3 s   6.400
  | Found hydrogenic basis function :  4 f  11.600
  | Found hydrogenic basis function :  3 p   6.200
  | Found hydrogenic basis function :  3 d   5.600
  | Found hydrogenic basis function :  5 g  17.600
  | Found hydrogenic basis function :  1 s   0.750
  Species O                   : Missing cutoff potential type.
  Defaulting to exp(1/x)/(1-x)^2 type cutoff potential.
  Species O : On-site basis accuracy parameter (for Gram-Schmidt orthonormalisation) not specified.
  Using default value basis_acc =  0.1000000E-03.
  Species O                   : Using default innermost maximum threshold i_radial=  2 for radial functions.
  Species O                   : Basic radial grid will be enhanced according to radial_multiplier =   2, to contain    73 grid points.
 
  Finished reading input file 'control.in'. Consistency checks are next.
 
  Target number of points in a grid batch is not set. Defaulting to  100
  Method for grid partitioning is not set. Defaulting to parallel hash+maxmin partitioning.
  Batch size limit is not set. Defaulting to    200
  By default, will store active basis functions for each batch.
  If in need of memory, prune_basis_once .false. can be used to disable this option.
  communication_type for Hartree potential was not specified.
  Defaulting to calc_hartree .
  Pulay mixer: Number of initial linear mixing iterations not set.
  Defaulting to    0 iterations.
  Work space size for distributed Hartree potential not set.
  Defaulting to   0.200000E+03 MB.
  Algorithm-dependent basis array size parameters:
  | n_max_pulay                         :       10
  Geometry relaxation not requested: no relaxation will be performed.
  Handling of forces: Unphysical translation and rotation will be removed from forces.
  No accuracy limit for integral partition fn. given. Defaulting to 0.1000E-14.
  No threshold value for u(r) in integrations given. Defaulting to 0.1000E-05.
  No accuracy for occupation numbers given. Defaulting to 0.1000E-07.
  No threshold value for occupation numbers given. Defaulting to 0.0000E+00.
  No accuracy for fermi level given. Defaulting to 0.1000E-19.
  Maximum # of iterations to find E_F not set. Defaulting to  200.
  Will not use alltoall communication since running on < 1024 CPUs.
  Partitioning for Hartree potential was not defined. Using partition_type for integrals.
  | Reporting present value of keyword multip_moments_threshold  :       0.10000000E-09
  | This value may affect high angular momentum components of the Hartree potential in periodic systems.
  No q(lm)/r^(l+1) cutoff set for long-range Hartree potential.
  | Using default value of  0.100000E-09 .
  | Verify using the multipole_threshold keyword.
  Defaulting to new monopole extrapolation.
  Density update method: Loop over occupied states selected for charge density update.
------------------------------------------------------------


------------------------------------------------------------
          Reading geometry description geometry.in.
------------------------------------------------------------
  Input structure read successfully.
  The structure contains        7 atoms,  and a total of         21.000 electrons.

  Input geometry:
  | No unit cell requested.
  | Atomic structure:
  |       Atom                x [A]            y [A]            z [A]
  |    1: Species O             -4.053030         0.065001        -1.525160
  |    2: Species H             -4.566710         0.974813        -1.912820
  |    3: Species H             -3.067820         0.330172        -1.477310
  |    4: Species H             -4.370360        -0.049164        -0.572274
  |    5: Species O             -4.066610         4.258280        -0.900064
  |    6: Species H             -3.224110         3.876870        -0.569443
  |    7: Species H             -3.737450         5.116530        -1.322720
  |

  | The smallest distance between any two atoms is         0.98213547 AA.
  |
  | The first atom of this pair is atom number                      5 .
  | The second atom of this pair is atom number                     6 .

  Structure-dependent array size parameters: 
  | Maximum number of distinct radial functions  :       18
  | Maximum number of basis functions            :      153
  | Number of Kohn-Sham states (occupied + empty):       39
------------------------------------------------------------

------------------------------------------------------------
          Preparing all fixed parts of the calculation.
------------------------------------------------------------
  Determining machine precision:
    2.225073858507201E-308
  Setting up grids for atomic and cluster calculations.

  Creating wave function, potential, and density for free atoms.

  Species: H

  List of occupied orbitals and eigenvalues:
    n    l              occ      energy [Ha]    energy [eV]
    1    0           1.0000        -0.241408        -6.5691


  Species: O

  List of occupied orbitals and eigenvalues:
    n    l              occ      energy [Ha]    energy [eV]
    1    0           2.0000       -18.944147      -515.4965
    2    0           2.0000        -0.883529       -24.0421
    2    1           4.0000        -0.330176        -8.9845

  Creating fixed part of basis set: Ionic, confined, hydrogenic.
 
  H                    hydrogenic:
 
  List of hydrogenic basis orbitals: 
    n    l      effective z      eigenvalue [eV]  inner max. [A]     outer max. [A]     outer radius [A]   
    2    0         2.100000       -14.9965           0.193241           1.317192           5.372934
    2    1         3.500000       -41.6672           0.602363           0.602363           4.056010
    1    0         0.850000        -9.8292           0.624864           0.624864           5.372934
    2    1         3.700000       -46.5653           0.573616           0.573616           3.909951
    2    0         1.200000        -4.5995           0.334977           2.228160           5.505921
    3    2         7.000000       -74.0753           0.680692           0.680692           3.769152
 
 
  O                    hydrogenic:
 
  List of hydrogenic basis orbitals: 
    n    l      effective z      eigenvalue [eV]  inner max. [A]     outer max. [A]     outer radius [A]   
    2    1         1.800000       -11.0118           1.178546           1.178546           5.432516
    3    2         7.600000       -87.3182           0.624117           0.624117           3.541422
    3    0         6.400000       -61.9209           0.061166           1.081887           4.306510
    4    3        11.600000      -114.4238           0.731621           0.731621           3.584982
    3    1         6.200000       -58.1113           0.255677           1.030255           4.306510
    3    2         5.600000       -47.4081           0.847222           0.847222           4.413102
    5    4        17.600000      -168.5799           0.749730           0.749730           3.372413
    1    0         0.750000        -7.6499           0.705275           0.705275           5.366508
 

  Adding cutoff potential to free-atom effective potential.
  Creating atomic-like basis functions for current effective potential.

  Species H                   :

  List of atomic basis orbitals and eigenvalues:
    n    l      energy [Ha]    energy [eV]    outer radius [A]
    1    0        -0.241374        -6.5681       5.372934


  Species O                   :

  List of atomic basis orbitals and eigenvalues:
    n    l      energy [Ha]    energy [eV]    outer radius [A]
    1    0       -18.944147      -515.4965       1.415745
    2    0        -0.883529       -24.0421       5.048305
    2    1        -0.330173        -8.9845       5.301302

  Assembling full basis from fixed parts.
  | Species H :   atomic orbital   1 s accepted.
  | Species H :    hydro orbital   2 s accepted.
  | Species H :    hydro orbital   1 s accepted.
  | Species H :    hydro orbital   2 s accepted.
  | Species H :    hydro orbital   2 p accepted.
  | Species H :    hydro orbital   2 p accepted.
  | Species H :    hydro orbital   3 d accepted.
  | Species O :   atomic orbital   1 s accepted.
  | Species O :    hydro orbital   3 s accepted.
  | Species O :   atomic orbital   2 s accepted.
  | Species O :    hydro orbital   1 s accepted.
  | Species O :    hydro orbital   3 p accepted.
  | Species O :   atomic orbital   2 p accepted.
  | Species O :    hydro orbital   2 p accepted.
  | Species O :    hydro orbital   3 d accepted.
  | Species O :    hydro orbital   3 d accepted.
  | Species O :    hydro orbital   4 f accepted.
  | Species O :    hydro orbital   5 g accepted.
 
  Basis size parameters after reduction:
  | Total number of radial functions:       18
  | Total number of basis functions :      153
 
  Testing on-site integration grid accuracy.
  |  Species  Function  <phi|h_atom|phi> (log., in eV)  <phi|h_atom|phi> (rad., in eV)
           1        1                 -6.5683835025                 -6.5684759159
           1        2                 13.3711789951                 13.3708738703
           1        3                 23.6590910787                 23.6532055418
           1        4                 16.2963827186                 16.1870710655 ***
           1        5                 28.7627214838                 28.7627215090
           1        6                 59.5965249172                 59.5965950857
           1        7                 60.2220506392                 60.2220503827
           2        8               -515.4964576505               -515.4964530710
           2        9                 15.3030791347                 15.3030722972
           2       10                -21.7296094581                -21.7296135470
           2       11                 14.2969371730                 14.2969701621
           2       12                 21.0679693190                 21.0679697493
           2       13                 -2.3833606469                 -2.3833613176
           2       14                 13.7067136422                 13.7066766629
           2       15                 45.8013116808                 45.8013116965
           2       16                 52.2309815402                 52.2309831494
           2       17                 85.4120732416                 85.4120732763
           2       18                142.1019167745                142.1019167817
 * Note: Onsite integrals marked "***" above are less accurate than
 * onsite_accuracy_threshold =    0.03000 eV. Usually, this is harmless.
 * When in doubt, tighten the "radial" and/or "radial_multiplier" flags to check.

  Preparing densities etc. for the partition functions (integrals / Hartree potential).

  Preparations completed.
  max(cpu_time)          :      0.170 s.
  Wall clock time (cpu1) :      0.678 s.
------------------------------------------------------------

------------------------------------------------------------
          Begin self-consistency loop: Initialization.

          Date     :  20150727, Time     :  130518.934
------------------------------------------------------------

  Initializing index lists of integration centers etc. from given atomic structure:
  | Number of centers in hartree potential         :         7
  | Number of centers in hartree multipole         :         7
  | Number of centers in electron density summation:         7
  | Number of centers in basis integrals           :         7
  | Number of centers in integrals                 :         7
  Partitioning the integration grid into batches with parallel hashing+maxmin method.
  | Number of batches:      998
  | Maximal batch size:     188
  | Minimal batch size:      49
  | Average batch size:      90.459
  | Standard deviation of batch sizes:      24.676

  Integration load balanced across     8 MPI tasks.
  Work distribution over tasks is as follows:
  Task     0 has      11232 integration points.
  Task     1 has      11333 integration points.
  Task     2 has      11285 integration points.
  Task     3 has      11256 integration points.
  Task     4 has      11320 integration points.
  Task     5 has      11283 integration points.
  Task     6 has      11319 integration points.
  Task     7 has      11250 integration points.
  Initializing partition tables, free-atom densities, potentials, etc. across the integration grid (initialize_grid_storage).
  | Net number of integration points:    90278
  | of which are non-zero points    :    89794
  Obtaining max. number of non-zero basis functions in each batch (get_n_compute_maxes).
  | Maximal number of non-zero basis functions:      152 in task     0
  | Maximal number of non-zero basis functions:      152 in task     1
  | Maximal number of non-zero basis functions:      152 in task     2
  | Maximal number of non-zero basis functions:      152 in task     3
  | Maximal number of non-zero basis functions:      152 in task     4
  | Maximal number of non-zero basis functions:      152 in task     5
  | Maximal number of non-zero basis functions:      152 in task     6
  | Maximal number of non-zero basis functions:      152 in task     7
  Integrating Hamiltonian matrix: batch-based integration.
  Time summed over all CPUs for integration: real work        1.253 s, elapsed        1.304 s
  Integrating overlap matrix.
  Time summed over all CPUs for integration: real work        0.639 s, elapsed        0.669 s

  Updating Kohn-Sham eigenvalues, eigenvectors, occupation numbers, and Fermi level.
  Solving generalized eigenproblem
  Updating Kohn-Sham eigenvalues and eigenfunctions.
  Transforming overlap matrix and checking for singularities.
  Overlap matrix is nonsingular:
  | Lowest eigenvalue:  0.394455E-03
  Solving real generalised eigenvalue problem by standard LAPACK (fast)
  Determining occupation numbers for Kohn-Sham eigenstates.
  | Chemical potential (Fermi level) in eV                 : -.29659058E+01
  | Error in electron count due to remaining E_F inaccuracy: -.16626700E-11
  | Maximum occupation number of highest empty state:  0.00E+00

  Writing Kohn-Sham eigenvalues.

  State    Occupation    Eigenvalue [Ha]    Eigenvalue [eV]
      1       2.00000         -19.064654         -518.77564
      2       2.00000         -19.039999         -518.10474
      3       2.00000          -1.118633          -30.43955
      4       2.00000          -1.082986          -29.46956
      5       2.00000          -0.626738          -17.05440
      6       2.00000          -0.603119          -16.41169
      7       2.00000          -0.598779          -16.29361
      8       2.00000          -0.504793          -13.73611
      9       2.00000          -0.489141          -13.31020
     10       2.00000          -0.426823          -11.61443
     11       1.00000          -0.108995           -2.96591
     12       0.00000          -0.065844           -1.79171
     13       0.00000          -0.037245           -1.01348
     14       0.00000          -0.019746           -0.53731
     15       0.00000          -0.002503           -0.06812
     16       0.00000           0.067114            1.82627
     17       0.00000           0.079667            2.16785
     18       0.00000           0.086028            2.34094
     19       0.00000           0.096701            2.63138
     20       0.00000           0.109674            2.98438
     21       0.00000           0.116835            3.17924
     22       0.00000           0.133041            3.62024
     23       0.00000           0.193032            5.25266
     24       0.00000           0.206350            5.61507
     25       0.00000           0.225790            6.14405
     26       0.00000           0.237134            6.45276
     27       0.00000           0.328019            8.92584
     28       0.00000           0.330139            8.98354
     29       0.00000           0.344760            9.38141
     30       0.00000           0.367650           10.00426
     31       0.00000           0.377679           10.27717
     32       0.00000           0.379921           10.33819
     33       0.00000           0.398304           10.83841
     34       0.00000           0.420851           11.45193
     35       0.00000           0.458529           12.47720
     36       0.00000           0.504352           13.72413
     37       0.00000           0.519359           14.13248
     38       0.00000           0.705576           19.19970
     39       0.00000           0.722855           19.66988

  Highest occupied state (VBM) at    -11.61443197 eV
  | Occupation number:      2.00000000

  Lowest unoccupied state (CBM) at    -2.96590579 eV
  | Occupation number:      1.00000000

  Overall HOMO-LUMO gap:      8.64852618 eV.
  Calculating total energy contributions from superposition of free atom densities.

  Total energy components:
  | Sum of eigenvalues            :         -87.22032378 Ha       -2373.38576660 eV
  | XC energy correction          :         -18.53193275 Ha        -504.27954754 eV
  | XC potential correction       :          23.67957689 Ha         644.35407162 eV
  | Free-atom electrostatic energy:         -71.60310562 Ha       -1948.41963835 eV
  | Hartree energy correction     :           0.00000000 Ha           0.00000000 eV
  | van der Waals energy corr.    :           0.00000000 Ha           0.00000000 eV
  | Entropy correction            :          -0.00010367 Ha          -0.00282095 eV
  | ---------------------------
  | Total energy                  :        -153.67578525 Ha       -4181.73088086 eV
  | Total energy, T -> 0          :        -153.67588892 Ha       -4181.73370181 eV  <-- do not rely on this value for anything but (periodic) metals
  | Electronic free energy        :        -153.67599259 Ha       -4181.73652276 eV

  Derived energy quantities:
  | Kinetic energy                :         152.24591135 Ha        4142.82203240 eV
  | Electrostatic energy          :        -287.38976386 Ha       -7820.27336572 eV
  | Energy correction for multipole
  | error in Hartree potential    :           0.00000000 Ha           0.00000000 eV
  | Sum of eigenvalues per atom                           :        -339.05510951 eV
  | Total energy (T->0) per atom                          :        -597.39052883 eV  <-- do not rely on this value for anything but (periodic) metals
  | Electronic free energy per atom                       :        -597.39093182 eV
  Initialize hartree_potential_storage
  Max. number of atoms included in rho_multipole:            7

  End scf initialization - timings             :  max(cpu_time)    wall_clock(cpu1)
  | Time for scf. initialization               :        0.402 s           0.402 s
  | Boundary condition initialization          :        0.000 s           0.000 s
  | Integration                                :        0.248 s           0.248 s
  | Solution of K.-S. eqns.                    :        0.035 s           0.035 s
  | Grid partitioning                          :        0.054 s           0.054 s
  | Preloading free-atom quantities on grid    :        0.014 s           0.014 s
  | Free-atom superposition energy             :        0.019 s           0.019 s
  | Total energy evaluation                    :        0.001 s           0.000 s
------------------------------------------------------------

------------------------------------------------------------
          Begin self-consistency iteration #    1

  Date     :  20150727, Time     :  130519.336
------------------------------------------------------------
  Evaluating new KS density.
  Integration grid: deviation in total charge (<rho> - N_e) =  -1.662670E-12
  Pulay mixing of updated and previous charge densities.

  Evaluating partitioned Hartree potential by multipole expansion.
  | Analytical far-field extrapolation by fixed multipoles:
  | Hartree multipole sum: apparent total charge =  -0.126179E-06
  Summing up the Hartree potential.
  Time summed over all CPUs for potential: real work        0.570 s, elapsed        0.575 s
  | RMS charge density error from multipole expansion :   0.103440E-02

  Integrating Hamiltonian matrix: batch-based integration.
  Time summed over all CPUs for integration: real work        1.250 s, elapsed        1.321 s

  Updating Kohn-Sham eigenvalues, eigenvectors, occupation numbers, and Fermi level.
  Solving generalized eigenproblem
  Updating Kohn-Sham eigenvalues and eigenfunctions.
  Solving real generalised eigenvalue problem by standard LAPACK (fast)
  Determining occupation numbers for Kohn-Sham eigenstates.
  | Chemical potential (Fermi level) in eV                 : -.28388178E+01
  | Error in electron count due to remaining E_F inaccuracy: -.74941546E-08
  | Maximum occupation number of highest empty state:  0.00E+00

  Writing Kohn-Sham eigenvalues.

  State    Occupation    Eigenvalue [Ha]    Eigenvalue [eV]
      1       2.00000         -19.015158         -517.42877
      2       2.00000         -18.961705         -515.97424
      3       2.00000          -1.096873          -29.84742
      4       2.00000          -1.043702          -28.40058
      5       2.00000          -0.608739          -16.56462
      6       2.00000          -0.580225          -15.78874
      7       2.00000          -0.569503          -15.49697
      8       2.00000          -0.466602          -12.69688
      9       2.00000          -0.465315          -12.66187
     10       2.00000          -0.385520          -10.49054
     11       1.00000          -0.104325           -2.83882
     12       0.00000          -0.058455           -1.59064
     13       0.00000          -0.032091           -0.87324
     14       0.00000          -0.016366           -0.44534
     15       0.00000           0.004579            0.12460
     16       0.00000           0.069839            1.90043
     17       0.00000           0.082627            2.24839
     18       0.00000           0.088358            2.40435
     19       0.00000           0.104619            2.84683
     20       0.00000           0.115529            3.14370
     21       0.00000           0.123292            3.35493
     22       0.00000           0.139920            3.80742
     23       0.00000           0.198423            5.39937
     24       0.00000           0.209398            5.69801
     25       0.00000           0.230203            6.26414
     26       0.00000           0.241818            6.58021
     27       0.00000           0.332035            9.03512
     28       0.00000           0.336352            9.15261
     29       0.00000           0.347775            9.46343
     30       0.00000           0.372122           10.12597
     31       0.00000           0.381672           10.38582
     32       0.00000           0.383340           10.43120
     33       0.00000           0.404785           11.01476
     34       0.00000           0.429949           11.69950
     35       0.00000           0.468218           12.74086
     36       0.00000           0.510066           13.87961
     37       0.00000           0.529245           14.40148
     38       0.00000           0.710487           19.33334
     39       0.00000           0.734618           19.98998

  Highest occupied state (VBM) at    -10.49053534 eV
  | Occupation number:      2.00000000

  Lowest unoccupied state (CBM) at    -2.83881776 eV
  | Occupation number:      0.99999999

  Overall HOMO-LUMO gap:      7.65171758 eV.

  Total energy components:
  | Sum of eigenvalues            :         -86.49100795 Ha       -2353.54007304 eV
  | XC energy correction          :         -18.61228923 Ha        -506.46615865 eV
  | XC potential correction       :          23.78472333 Ha         647.21525165 eV
  | Free-atom electrostatic energy:         -71.60310562 Ha       -1948.41963835 eV
  | Hartree energy correction     :          -0.70959039 Ha         -19.30893683 eV
  | van der Waals energy corr.    :           0.00000000 Ha           0.00000000 eV
  | Entropy correction            :          -0.00010367 Ha          -0.00282095 eV
  | ---------------------------
  | Total energy                  :        -153.63126985 Ha       -4180.51955521 eV
  | Total energy, T -> 0          :        -153.63137352 Ha       -4180.52237616 eV  <-- do not rely on this value for anything but (periodic) metals
  | Electronic free energy        :        -153.63147719 Ha       -4180.52519710 eV

  Derived energy quantities:
  | Kinetic energy                :         152.74588759 Ha        4156.42707811 eV
  | Electrostatic energy          :        -287.76486822 Ha       -7830.48047466 eV
  | Energy correction for multipole
  | error in Hartree potential    :           0.00038323 Ha           0.01042821 eV
  | Sum of eigenvalues per atom                           :        -336.22001043 eV
  | Total energy (T->0) per atom                          :        -597.21748231 eV  <-- do not rely on this value for anything but (periodic) metals
  | Electronic free energy per atom                       :        -597.21788530 eV

  Self-consistency convergence accuracy:
  | Change of charge density      : 0.3819E+00
  | Change of sum of eigenvalues  : 0.1985E+02 eV
  | Change of total energy        : 0.1211E+01 eV

  End self-consistency iteration #     1       :  max(cpu_time)    wall_clock(cpu1)
  | Time for this iteration                    :        0.371 s           0.371 s
  | Charge density update                      :        0.120 s           0.120 s
  | Density mixing                             :        0.002 s           0.002 s
  | Hartree multipole update                   :        0.002 s           0.002 s
  | Hartree multipole summation                :        0.073 s           0.073 s
  | Integration                                :        0.165 s           0.165 s
  | Solution of K.-S. eqns.                    :        0.009 s           0.009 s
  | Total energy evaluation                    :        0.000 s           0.000 s
------------------------------------------------------------

------------------------------------------------------------
          Begin self-consistency iteration #    2

  Date     :  20150727, Time     :  130519.707
------------------------------------------------------------
  Evaluating new KS density.
  Integration grid: deviation in total charge (<rho> - N_e) =  -7.494155E-09
  Pulay mixing of updated and previous charge densities.

  Evaluating partitioned Hartree potential by multipole expansion.
  | Analytical far-field extrapolation by fixed multipoles:
  | Hartree multipole sum: apparent total charge =  -0.131749E-05
  Summing up the Hartree potential.
  Time summed over all CPUs for potential: real work        0.570 s, elapsed        0.576 s
  | RMS charge density error from multipole expansion :   0.407138E-02

  Integrating Hamiltonian matrix: batch-based integration.
  Time summed over all CPUs for integration: real work        1.250 s, elapsed        1.303 s

  Updating Kohn-Sham eigenvalues, eigenvectors, occupation numbers, and Fermi level.
  Solving generalized eigenproblem
  Updating Kohn-Sham eigenvalues and eigenfunctions.
  Solving real generalised eigenvalue problem by standard LAPACK (fast)
  Determining occupation numbers for Kohn-Sham eigenstates.
  | Chemical potential (Fermi level) in eV                 : -.25715909E+01
  | Error in electron count due to remaining E_F inaccuracy: -.42632564E-13
  | Maximum occupation number of highest empty state:  0.00E+00

  Highest occupied state (VBM) at     -7.91233183 eV
  | Occupation number:      2.00000000

  Lowest unoccupied state (CBM) at    -2.57159093 eV
  | Occupation number:      1.00000000

  Overall HOMO-LUMO gap:      5.34074090 eV.

  Total energy components:
  | Sum of eigenvalues            :         -84.85545632 Ha       -2309.03444895 eV
  | XC energy correction          :         -18.80166302 Ha        -511.61928177 eV
  | XC potential correction       :          24.03184980 Ha         653.93990519 eV
  | Free-atom electrostatic energy:         -71.60310562 Ha       -1948.41963835 eV
  | Hartree energy correction     :          -2.35513524 Ha         -64.08649043 eV
  | van der Waals energy corr.    :           0.00000000 Ha           0.00000000 eV
  | Entropy correction            :          -0.00010367 Ha          -0.00282095 eV
  | ---------------------------
  | Total energy                  :        -153.58351040 Ha       -4179.21995430 eV
  | Total energy, T -> 0          :        -153.58361407 Ha       -4179.22277525 eV  <-- do not rely on this value for anything but (periodic) metals
  | Electronic free energy        :        -153.58371773 Ha       -4179.22559620 eV

  Derived energy quantities:
  | Kinetic energy                :         153.72633002 Ha        4183.10627390 eV
  | Electrostatic energy          :        -288.50817739 Ha       -7850.70694643 eV
  | Energy correction for multipole
  | error in Hartree potential    :           0.00121066 Ha           0.03294375 eV
  | Sum of eigenvalues per atom                           :        -329.86206414 eV
  | Total energy (T->0) per atom                          :        -597.03182504 eV  <-- do not rely on this value for anything but (periodic) metals
  | Electronic free energy per atom                       :        -597.03222803 eV

  Self-consistency convergence accuracy:
  | Change of charge density      : 0.2894E+00
  | Change of sum of eigenvalues  : 0.4451E+02 eV
  | Change of total energy        : 0.1300E+01 eV

  End self-consistency iteration #     2       :  max(cpu_time)    wall_clock(cpu1)
  | Time for this iteration                    :        0.368 s           0.369 s
  | Charge density update                      :        0.118 s           0.119 s
  | Density mixing                             :        0.003 s           0.003 s
  | Hartree multipole update                   :        0.002 s           0.002 s
  | Hartree multipole summation                :        0.073 s           0.073 s
  | Integration                                :        0.163 s           0.163 s
  | Solution of K.-S. eqns.                    :        0.009 s           0.008 s
  | Total energy evaluation                    :        0.000 s           0.000 s
------------------------------------------------------------

------------------------------------------------------------
          Begin self-consistency iteration #    3

  Date     :  20150727, Time     :  130520.076
------------------------------------------------------------
  Evaluating new KS density.
  Integration grid: deviation in total charge (<rho> - N_e) =  -5.684342E-14
  Pulay mixing of updated and previous charge densities.

  Evaluating partitioned Hartree potential by multipole expansion.
  | Analytical far-field extrapolation by fixed multipoles:
  | Hartree multipole sum: apparent total charge =  -0.125909E-05
  Summing up the Hartree potential.
  Time summed over all CPUs for potential: real work        0.570 s, elapsed        0.576 s
  | RMS charge density error from multipole expansion :   0.859982E-02

  Integrating Hamiltonian matrix: batch-based integration.
  Time summed over all CPUs for integration: real work        1.254 s, elapsed        1.308 s

  Updating Kohn-Sham eigenvalues, eigenvectors, occupation numbers, and Fermi level.
  Solving generalized eigenproblem
  Updating Kohn-Sham eigenvalues and eigenfunctions.
  Solving real generalised eigenvalue problem by standard LAPACK (fast)
  Determining occupation numbers for Kohn-Sham eigenstates.
  | Chemical potential (Fermi level) in eV                 : -.26945521E+01
  | Error in electron count due to remaining E_F inaccuracy: 0.72475359E-12
  | Maximum occupation number of highest empty state:  0.00E+00

  Highest occupied state (VBM) at     -2.69455214 eV
  | Occupation number:      1.00000000

  Lowest unoccupied state (CBM) at    -1.01068748 eV
  | Occupation number:      0.00000000

  Overall HOMO-LUMO gap:      1.68386465 eV.

  Total energy components:
  | Sum of eigenvalues            :         -85.05938717 Ha       -2314.58368956 eV
  | XC energy correction          :         -18.78618317 Ha        -511.19805355 eV
  | XC potential correction       :          24.00773541 Ha         653.28371918 eV
  | Free-atom electrostatic energy:         -71.60310562 Ha       -1948.41963835 eV
  | Hartree energy correction     :          -2.14130475 Ha         -58.26786690 eV
  | van der Waals energy corr.    :           0.00000000 Ha           0.00000000 eV
  | Entropy correction            :          -0.00010367 Ha          -0.00282095 eV
  | ---------------------------
  | Total energy                  :        -153.58224530 Ha       -4179.18552917 eV
  | Total energy, T -> 0          :        -153.58234897 Ha       -4179.18835012 eV  <-- do not rely on this value for anything but (periodic) metals
  | Electronic free energy        :        -153.58245263 Ha       -4179.19117106 eV

  Derived energy quantities:
  | Kinetic energy                :         153.04303957 Ha        4164.51299482 eV
  | Electrostatic energy          :        -287.83910170 Ha       -7832.50047044 eV
  | Energy correction for multipole
  | error in Hartree potential    :           0.00108198 Ha           0.02944224 eV
  | Sum of eigenvalues per atom                           :        -330.65481279 eV
  | Total energy (T->0) per atom                          :        -597.02690716 eV  <-- do not rely on this value for anything but (periodic) metals
  | Electronic free energy per atom                       :        -597.02731015 eV

  Self-consistency convergence accuracy:
  | Change of charge density      : 0.1511E+00
  | Change of sum of eigenvalues  : -.5549E+01 eV
  | Change of total energy        : 0.3443E-01 eV

  End self-consistency iteration #     3       :  max(cpu_time)    wall_clock(cpu1)
  | Time for this iteration                    :        0.370 s           0.370 s
  | Charge density update                      :        0.119 s           0.119 s
  | Density mixing                             :        0.003 s           0.003 s
  | Hartree multipole update                   :        0.003 s           0.002 s
  | Hartree multipole summation                :        0.072 s           0.073 s
  | Integration                                :        0.164 s           0.164 s
  | Solution of K.-S. eqns.                    :        0.008 s           0.008 s
  | Total energy evaluation                    :        0.000 s           0.001 s
------------------------------------------------------------

------------------------------------------------------------
          Begin self-consistency iteration #    4

  Date     :  20150727, Time     :  130520.446
------------------------------------------------------------
  Evaluating new KS density.
  Integration grid: deviation in total charge (<rho> - N_e) =   7.425172E-13
  Pulay mixing of updated and previous charge densities.

  Evaluating partitioned Hartree potential by multipole expansion.
  | Analytical far-field extrapolation by fixed multipoles:
  | Hartree multipole sum: apparent total charge =  -0.138383E-05
  Summing up the Hartree potential.
  Time summed over all CPUs for potential: real work        0.570 s, elapsed        0.575 s
  | RMS charge density error from multipole expansion :   0.112200E-01

  Integrating Hamiltonian matrix: batch-based integration.
  Time summed over all CPUs for integration: real work        1.248 s, elapsed        1.303 s

  Updating Kohn-Sham eigenvalues, eigenvectors, occupation numbers, and Fermi level.
  Solving generalized eigenproblem
  Updating Kohn-Sham eigenvalues and eigenfunctions.
  Solving real generalised eigenvalue problem by standard LAPACK (fast)
  Determining occupation numbers for Kohn-Sham eigenstates.
  | Chemical potential (Fermi level) in eV                 : -.26452906E+01
  | Error in electron count due to remaining E_F inaccuracy: 0.00000000E+00
  | Maximum occupation number of highest empty state:  0.00E+00

  Highest occupied state (VBM) at     -2.64529061 eV
  | Occupation number:      1.00000000

  Lowest unoccupied state (CBM) at    -2.64529061 eV
  | Occupation number:      1.00000000

  Overall HOMO-LUMO gap:      0.00000000 eV.

  Total energy components:
  | Sum of eigenvalues            :         -84.58753948 Ha       -2301.74406081 eV
  | XC energy correction          :         -18.85178249 Ha        -512.98310182 eV
  | XC potential correction       :          24.09208244 Ha         655.57891863 eV
  | Free-atom electrostatic energy:         -71.60310562 Ha       -1948.41963835 eV
  | Hartree energy correction     :          -2.62960422 Ha         -71.55517163 eV
  | van der Waals energy corr.    :           0.00000000 Ha           0.00000000 eV
  | Entropy correction            :          -0.00010367 Ha          -0.00282095 eV
  | ---------------------------
  | Total energy                  :        -153.57994938 Ha       -4179.12305398 eV
  | Total energy, T -> 0          :        -153.58005304 Ha       -4179.12587492 eV  <-- do not rely on this value for anything but (periodic) metals
  | Electronic free energy        :        -153.58015671 Ha       -4179.12869587 eV

  Derived energy quantities:
  | Kinetic energy                :         153.12001585 Ha        4166.60762607 eV
  | Electrostatic energy          :        -287.84818274 Ha       -7832.74757823 eV
  | Energy correction for multipole
  | error in Hartree potential    :           0.00131802 Ha           0.03586523 eV
  | Sum of eigenvalues per atom                           :        -328.82058012 eV
  | Total energy (T->0) per atom                          :        -597.01798213 eV  <-- do not rely on this value for anything but (periodic) metals
  | Electronic free energy per atom                       :        -597.01838512 eV

  Self-consistency convergence accuracy:
  | Change of charge density      : 0.6989E-01
  | Change of sum of eigenvalues  : 0.1284E+02 eV
  | Change of total energy        : 0.6248E-01 eV

  End self-consistency iteration #     4       :  max(cpu_time)    wall_clock(cpu1)
  | Time for this iteration                    :        0.370 s           0.370 s
  | Charge density update                      :        0.119 s           0.119 s
  | Density mixing                             :        0.004 s           0.003 s
  | Hartree multipole update                   :        0.002 s           0.003 s
  | Hartree multipole summation                :        0.073 s           0.072 s
  | Integration                                :        0.163 s           0.164 s
  | Solution of K.-S. eqns.                    :        0.008 s           0.008 s
  | Total energy evaluation                    :        0.001 s           0.000 s
------------------------------------------------------------

------------------------------------------------------------
          Begin self-consistency iteration #    5

  Date     :  20150727, Time     :  130520.816
------------------------------------------------------------
  Evaluating new KS density.
  Integration grid: deviation in total charge (<rho> - N_e) =  -1.065814E-14
  Pulay mixing of updated and previous charge densities.

  Evaluating partitioned Hartree potential by multipole expansion.
  | Analytical far-field extrapolation by fixed multipoles:
  | Hartree multipole sum: apparent total charge =  -0.131141E-05
  Summing up the Hartree potential.
  Time summed over all CPUs for potential: real work        0.570 s, elapsed        0.575 s
  | RMS charge density error from multipole expansion :   0.111274E-01

  Integrating Hamiltonian matrix: batch-based integration.
  Time summed over all CPUs for integration: real work        1.247 s, elapsed        1.302 s

  Updating Kohn-Sham eigenvalues, eigenvectors, occupation numbers, and Fermi level.
  Solving generalized eigenproblem
  Updating Kohn-Sham eigenvalues and eigenfunctions.
  Solving real generalised eigenvalue problem by standard LAPACK (fast)
  Determining occupation numbers for Kohn-Sham eigenstates.
  | Chemical potential (Fermi level) in eV                 : -.26358313E+01
  | Error in electron count due to remaining E_F inaccuracy: 0.00000000E+00
  | Maximum occupation number of highest empty state:  0.00E+00

  Highest occupied state (VBM) at     -2.63583135 eV
  | Occupation number:      1.00000000

  Lowest unoccupied state (CBM) at    -2.63583135 eV
  | Occupation number:      1.00000000

  Overall HOMO-LUMO gap:      0.00000000 eV.

  Total energy components:
  | Sum of eigenvalues            :         -84.61864567 Ha       -2302.59050330 eV
  | XC energy correction          :         -18.84762314 Ha        -512.86992006 eV
  | XC potential correction       :          24.08662096 Ha         655.43030438 eV
  | Free-atom electrostatic energy:         -71.60310562 Ha       -1948.41963835 eV
  | Hartree energy correction     :          -2.59708788 Ha         -70.67035684 eV
  | van der Waals energy corr.    :           0.00000000 Ha           0.00000000 eV
  | Entropy correction            :          -0.00010367 Ha          -0.00282095 eV
  | ---------------------------
  | Total energy                  :        -153.57984134 Ha       -4179.12011416 eV
  | Total energy, T -> 0          :        -153.57994501 Ha       -4179.12293510 eV  <-- do not rely on this value for anything but (periodic) metals
  | Electronic free energy        :        -153.58004868 Ha       -4179.12575605 eV

  Derived energy quantities:
  | Kinetic energy                :         153.13074623 Ha        4166.89961440 eV
  | Electrostatic energy          :        -287.86296443 Ha       -7833.14980850 eV
  | Energy correction for multipole
  | error in Hartree potential    :           0.00137904 Ha           0.03752557 eV
  | Sum of eigenvalues per atom                           :        -328.94150047 eV
  | Total energy (T->0) per atom                          :        -597.01756216 eV  <-- do not rely on this value for anything but (periodic) metals
  | Electronic free energy per atom                       :        -597.01796515 eV

  Self-consistency convergence accuracy:
  | Change of charge density      : 0.1108E-01
  | Change of sum of eigenvalues  : -.8464E+00 eV
  | Change of total energy        : 0.2940E-02 eV

  End self-consistency iteration #     5       :  max(cpu_time)    wall_clock(cpu1)
  | Time for this iteration                    :        0.370 s           0.370 s
  | Charge density update                      :        0.119 s           0.118 s
  | Density mixing                             :        0.004 s           0.005 s
  | Hartree multipole update                   :        0.002 s           0.002 s
  | Hartree multipole summation                :        0.073 s           0.073 s
  | Integration                                :        0.163 s           0.163 s
  | Solution of K.-S. eqns.                    :        0.009 s           0.008 s
  | Total energy evaluation                    :        0.000 s           0.001 s
------------------------------------------------------------

------------------------------------------------------------
          Begin self-consistency iteration #    6

  Date     :  20150727, Time     :  130521.186
------------------------------------------------------------
  Evaluating new KS density.
  Integration grid: deviation in total charge (<rho> - N_e) =   0.000000E+00
  Pulay mixing of updated and previous charge densities.

  Evaluating partitioned Hartree potential by multipole expansion.
  | Analytical far-field extrapolation by fixed multipoles:
  | Hartree multipole sum: apparent total charge =  -0.129316E-05
  Summing up the Hartree potential.
  Time summed over all CPUs for potential: real work        0.570 s, elapsed        0.575 s
  | RMS charge density error from multipole expansion :   0.111397E-01

  Integrating Hamiltonian matrix: batch-based integration.
  Time summed over all CPUs for integration: real work        1.246 s, elapsed        1.302 s

  Updating Kohn-Sham eigenvalues, eigenvectors, occupation numbers, and Fermi level.
  Solving generalized eigenproblem
  Updating Kohn-Sham eigenvalues and eigenfunctions.
  Solving real generalised eigenvalue problem by standard LAPACK (fast)
  Determining occupation numbers for Kohn-Sham eigenstates.
  | Chemical potential (Fermi level) in eV                 : -.26310800E+01
  | Error in electron count due to remaining E_F inaccuracy: 0.00000000E+00
  | Maximum occupation number of highest empty state:  0.00E+00

  Highest occupied state (VBM) at     -2.63107999 eV
  | Occupation number:      1.00000000

  Lowest unoccupied state (CBM) at    -2.63107999 eV
  | Occupation number:      1.00000000

  Overall HOMO-LUMO gap:      0.00000000 eV.

  Total energy components:
  | Sum of eigenvalues            :         -84.64322035 Ha       -2303.25921422 eV
  | XC energy correction          :         -18.84472488 Ha        -512.79105441 eV
  | XC potential correction       :          24.08274877 Ha         655.32493659 eV
  | Free-atom electrostatic energy:         -71.60310562 Ha       -1948.41963835 eV
  | Hartree energy correction     :          -2.57151046 Ha         -69.97435996 eV
  | van der Waals energy corr.    :           0.00000000 Ha           0.00000000 eV
  | Entropy correction            :          -0.00010367 Ha          -0.00282095 eV
  | ---------------------------
  | Total energy                  :        -153.57981254 Ha       -4179.11933035 eV
  | Total energy, T -> 0          :        -153.57991620 Ha       -4179.12215129 eV  <-- do not rely on this value for anything but (periodic) metals
  | Electronic free energy        :        -153.58001987 Ha       -4179.12497224 eV

  Derived energy quantities:
  | Kinetic energy                :         153.13365192 Ha        4166.97868220 eV
  | Electrostatic energy          :        -287.86873958 Ha       -7833.30695814 eV
  | Energy correction for multipole
  | error in Hartree potential    :           0.00143628 Ha           0.03908310 eV
  | Sum of eigenvalues per atom                           :        -329.03703060 eV
  | Total energy (T->0) per atom                          :        -597.01745018 eV  <-- do not rely on this value for anything but (periodic) metals
  | Electronic free energy per atom                       :        -597.01785318 eV

  Self-consistency convergence accuracy:
  | Change of charge density      : 0.6426E-02
  | Change of sum of eigenvalues  : -.6687E+00 eV
  | Change of total energy        : 0.7838E-03 eV

  End self-consistency iteration #     6       :  max(cpu_time)    wall_clock(cpu1)
  | Time for this iteration                    :        0.371 s           0.370 s
  | Charge density update                      :        0.119 s           0.118 s
  | Density mixing                             :        0.005 s           0.005 s
  | Hartree multipole update                   :        0.002 s           0.003 s
  | Hartree multipole summation                :        0.073 s           0.072 s
  | Integration                                :        0.163 s           0.164 s
  | Solution of K.-S. eqns.                    :        0.008 s           0.008 s
  | Total energy evaluation                    :        0.000 s           0.000 s
------------------------------------------------------------

------------------------------------------------------------
          Begin self-consistency iteration #    7

  Date     :  20150727, Time     :  130521.557
------------------------------------------------------------
  Evaluating new KS density.
  Integration grid: deviation in total charge (<rho> - N_e) =  -3.552714E-15
  Pulay mixing of updated and previous charge densities.

  Evaluating partitioned Hartree potential by multipole expansion.
  | Analytical far-field extrapolation by fixed multipoles:
  | Hartree multipole sum: apparent total charge =  -0.127472E-05
  Summing up the Hartree potential.
  Time summed over all CPUs for potential: real work        0.570 s, elapsed        0.575 s
  | RMS charge density error from multipole expansion :   0.112662E-01

  Integrating Hamiltonian matrix: batch-based integration.
  Time summed over all CPUs for integration: real work        1.241 s, elapsed        1.293 s

  Updating Kohn-Sham eigenvalues, eigenvectors, occupation numbers, and Fermi level.
  Solving generalized eigenproblem
  Updating Kohn-Sham eigenvalues and eigenfunctions.
  Solving real generalised eigenvalue problem by standard LAPACK (fast)
  Determining occupation numbers for Kohn-Sham eigenstates.
  | Chemical potential (Fermi level) in eV                 : -.26322555E+01
  | Error in electron count due to remaining E_F inaccuracy: 0.00000000E+00
  | Maximum occupation number of highest empty state:  0.00E+00

  Highest occupied state (VBM) at     -2.63225549 eV
  | Occupation number:      1.00000000

  Lowest unoccupied state (CBM) at    -2.63225549 eV
  | Occupation number:      1.00000000

  Overall HOMO-LUMO gap:      0.00000000 eV.

  Total energy components:
  | Sum of eigenvalues            :         -84.65438664 Ha       -2303.56306460 eV
  | XC energy correction          :         -18.84403235 Ha        -512.77220971 eV
  | XC potential correction       :          24.08167819 Ha         655.29580474 eV
  | Free-atom electrostatic energy:         -71.60310562 Ha       -1948.41963835 eV
  | Hartree energy correction     :          -2.55996353 Ha         -69.66015202 eV
  | van der Waals energy corr.    :           0.00000000 Ha           0.00000000 eV
  | Entropy correction            :          -0.00010367 Ha          -0.00282095 eV
  | ---------------------------
  | Total energy                  :        -153.57980995 Ha       -4179.11925994 eV
  | Total energy, T -> 0          :        -153.57991362 Ha       -4179.12208088 eV  <-- do not rely on this value for anything but (periodic) metals
  | Electronic free energy        :        -153.58001728 Ha       -4179.12490183 eV

  Derived energy quantities:
  | Kinetic energy                :         153.15184465 Ha        4167.47373158 eV
  | Electrostatic energy          :        -287.88762225 Ha       -7833.82078181 eV
  | Energy correction for multipole
  | error in Hartree potential    :           0.00153943 Ha           0.04189003 eV
  | Sum of eigenvalues per atom                           :        -329.08043780 eV
  | Total energy (T->0) per atom                          :        -597.01744013 eV  <-- do not rely on this value for anything but (periodic) metals
  | Electronic free energy per atom                       :        -597.01784312 eV

  Self-consistency convergence accuracy:
  | Change of charge density      : 0.4206E-02
  | Change of sum of eigenvalues  : -.3039E+00 eV
  | Change of total energy        : 0.7041E-04 eV

  End self-consistency iteration #     7       :  max(cpu_time)    wall_clock(cpu1)
  | Time for this iteration                    :        0.370 s           0.370 s
  | Charge density update                      :        0.119 s           0.118 s
  | Density mixing                             :        0.005 s           0.006 s
  | Hartree multipole update                   :        0.003 s           0.002 s
  | Hartree multipole summation                :        0.072 s           0.073 s
  | Integration                                :        0.162 s           0.162 s
  | Solution of K.-S. eqns.                    :        0.009 s           0.008 s
  | Total energy evaluation                    :        0.000 s           0.001 s
------------------------------------------------------------

------------------------------------------------------------
          Begin self-consistency iteration #    8

  Date     :  20150727, Time     :  130521.927
------------------------------------------------------------
  Evaluating new KS density.
  Integration grid: deviation in total charge (<rho> - N_e) =   1.421085E-14
  Pulay mixing of updated and previous charge densities.

  Evaluating partitioned Hartree potential by multipole expansion.
  | Analytical far-field extrapolation by fixed multipoles:
  | Hartree multipole sum: apparent total charge =  -0.126237E-05
  Summing up the Hartree potential.
  Time summed over all CPUs for potential: real work        0.570 s, elapsed        0.575 s
  | RMS charge density error from multipole expansion :   0.112564E-01

  Integrating Hamiltonian matrix: batch-based integration.
  Time summed over all CPUs for integration: real work        1.243 s, elapsed        1.303 s

  Updating Kohn-Sham eigenvalues, eigenvectors, occupation numbers, and Fermi level.
  Solving generalized eigenproblem
  Updating Kohn-Sham eigenvalues and eigenfunctions.
  Solving real generalised eigenvalue problem by standard LAPACK (fast)
  Determining occupation numbers for Kohn-Sham eigenstates.
  | Chemical potential (Fermi level) in eV                 : -.26354038E+01
  | Error in electron count due to remaining E_F inaccuracy: 0.42632564E-13
  | Maximum occupation number of highest empty state:  0.00E+00

  Highest occupied state (VBM) at     -2.63540384 eV
  | Occupation number:      1.00000000

  Lowest unoccupied state (CBM) at    -0.89676325 eV
  | Occupation number:      0.00000000

  Overall HOMO-LUMO gap:      1.73864059 eV.

  Total energy components:
  | Sum of eigenvalues            :         -84.66352529 Ha       -2303.81173979 eV
  | XC energy correction          :         -18.84291948 Ha        -512.74192712 eV
  | XC potential correction       :          24.08021120 Ha         655.25588588 eV
  | Free-atom electrostatic energy:         -71.60310562 Ha       -1948.41963835 eV
  | Hartree energy correction     :          -2.55046944 Ha         -69.40180468 eV
  | van der Waals energy corr.    :           0.00000000 Ha           0.00000000 eV
  | Entropy correction            :          -0.00010367 Ha          -0.00282095 eV
  | ---------------------------
  | Total energy                  :        -153.57980863 Ha       -4179.11922406 eV
  | Total energy, T -> 0          :        -153.57991230 Ha       -4179.12204501 eV  <-- do not rely on this value for anything but (periodic) metals
  | Electronic free energy        :        -153.58001597 Ha       -4179.12486596 eV

  Derived energy quantities:
  | Kinetic energy                :         153.15568116 Ha        4167.57812853 eV
  | Electrostatic energy          :        -287.89257031 Ha       -7833.95542548 eV
  | Energy correction for multipole
  | error in Hartree potential    :           0.00155747 Ha           0.04238088 eV
  | Sum of eigenvalues per atom                           :        -329.11596283 eV
  | Total energy (T->0) per atom                          :        -597.01743500 eV  <-- do not rely on this value for anything but (periodic) metals
  | Electronic free energy per atom                       :        -597.01783799 eV

  Self-consistency convergence accuracy:
  | Change of charge density      : 0.1273E-02
  | Change of sum of eigenvalues  : -.2487E+00 eV
  | Change of total energy        : 0.3587E-04 eV

  End self-consistency iteration #     8       :  max(cpu_time)    wall_clock(cpu1)
  | Time for this iteration                    :        0.373 s           0.372 s
  | Charge density update                      :        0.119 s           0.119 s
  | Density mixing                             :        0.007 s           0.006 s
  | Hartree multipole update                   :        0.002 s           0.003 s
  | Hartree multipole summation                :        0.072 s           0.072 s
  | Integration                                :        0.163 s           0.163 s
  | Solution of K.-S. eqns.                    :        0.008 s           0.009 s
  | Total energy evaluation                    :        0.001 s           0.000 s
------------------------------------------------------------

------------------------------------------------------------
          Begin self-consistency iteration #    9

  Date     :  20150727, Time     :  130522.299
------------------------------------------------------------
  Evaluating new KS density.
  Integration grid: deviation in total charge (<rho> - N_e) =   5.329071E-14
  Pulay mixing of updated and previous charge densities.

  Evaluating partitioned Hartree potential by multipole expansion.
  | Analytical far-field extrapolation by fixed multipoles:
  | Hartree multipole sum: apparent total charge =  -0.126224E-05
  Summing up the Hartree potential.
  Time summed over all CPUs for potential: real work        0.570 s, elapsed        0.576 s
  | RMS charge density error from multipole expansion :   0.112573E-01

  Integrating Hamiltonian matrix: batch-based integration.
  Time summed over all CPUs for integration: real work        1.241 s, elapsed        1.300 s

  Updating Kohn-Sham eigenvalues, eigenvectors, occupation numbers, and Fermi level.
  Solving generalized eigenproblem
  Updating Kohn-Sham eigenvalues and eigenfunctions.
  Solving real generalised eigenvalue problem by standard LAPACK (fast)
  Determining occupation numbers for Kohn-Sham eigenstates.
  | Chemical potential (Fermi level) in eV                 : -.26359844E+01
  | Error in electron count due to remaining E_F inaccuracy: 0.42632564E-13
  | Maximum occupation number of highest empty state:  0.00E+00

  Highest occupied state (VBM) at     -2.63598438 eV
  | Occupation number:      1.00000000

  Lowest unoccupied state (CBM) at    -0.89579512 eV
  | Occupation number:      0.00000000

  Overall HOMO-LUMO gap:      1.74018926 eV.

  Total energy components:
  | Sum of eigenvalues            :         -84.66228127 Ha       -2303.77788817 eV
  | XC energy correction          :         -18.84307027 Ha        -512.74603020 eV
  | XC potential correction       :          24.08041113 Ha         655.26132618 eV
  | Free-atom electrostatic energy:         -71.60310562 Ha       -1948.41963835 eV
  | Hartree energy correction     :          -2.55176256 Ha         -69.43699228 eV
  | van der Waals energy corr.    :           0.00000000 Ha           0.00000000 eV
  | Entropy correction            :          -0.00010367 Ha          -0.00282095 eV
  | ---------------------------
  | Total energy                  :        -153.57980858 Ha       -4179.11922282 eV
  | Total energy, T -> 0          :        -153.57991225 Ha       -4179.12204377 eV  <-- do not rely on this value for anything but (periodic) metals
  | Electronic free energy        :        -153.58001592 Ha       -4179.12486471 eV

  Derived energy quantities:
  | Kinetic energy                :         153.15603613 Ha        4167.58778775 eV
  | Electrostatic energy          :        -287.89277445 Ha       -7833.96098036 eV
  | Energy correction for multipole
  | error in Hartree potential    :           0.00155596 Ha           0.04233989 eV
  | Sum of eigenvalues per atom                           :        -329.11112688 eV
  | Total energy (T->0) per atom                          :        -597.01743482 eV  <-- do not rely on this value for anything but (periodic) metals
  | Electronic free energy per atom                       :        -597.01783782 eV

  Self-consistency convergence accuracy:
  | Change of charge density      : 0.2919E-03
  | Change of sum of eigenvalues  : 0.3385E-01 eV
  | Change of total energy        : 0.1245E-05 eV

  End self-consistency iteration #     9       :  max(cpu_time)    wall_clock(cpu1)
  | Time for this iteration                    :        0.372 s           0.373 s
  | Charge density update                      :        0.119 s           0.119 s
  | Density mixing                             :        0.007 s           0.007 s
  | Hartree multipole update                   :        0.002 s           0.002 s
  | Hartree multipole summation                :        0.073 s           0.073 s
  | Integration                                :        0.163 s           0.163 s
  | Solution of K.-S. eqns.                    :        0.008 s           0.008 s
  | Total energy evaluation                    :        0.000 s           0.000 s
------------------------------------------------------------

------------------------------------------------------------
          Begin self-consistency iteration #   10

  Date     :  20150727, Time     :  130522.672
------------------------------------------------------------
  Evaluating new KS density.
  Integration grid: deviation in total charge (<rho> - N_e) =   3.907985E-14
  Pulay mixing of updated and previous charge densities.

  Evaluating partitioned Hartree potential by multipole expansion.
  | Analytical far-field extrapolation by fixed multipoles:
  | Hartree multipole sum: apparent total charge =  -0.125832E-05
  Summing up the Hartree potential.
  Time summed over all CPUs for potential: real work        0.570 s, elapsed        0.575 s
  | RMS charge density error from multipole expansion :   0.112567E-01

  Integrating Hamiltonian matrix: batch-based integration.
  Time summed over all CPUs for integration: real work        1.243 s, elapsed        1.299 s

  Updating Kohn-Sham eigenvalues, eigenvectors, occupation numbers, and Fermi level.
  Solving generalized eigenproblem
  Updating Kohn-Sham eigenvalues and eigenfunctions.
  Solving real generalised eigenvalue problem by standard LAPACK (fast)
  Determining occupation numbers for Kohn-Sham eigenstates.
  | Chemical potential (Fermi level) in eV                 : -.26370726E+01
  | Error in electron count due to remaining E_F inaccuracy: 0.42632564E-13
  | Maximum occupation number of highest empty state:  0.00E+00

  Highest occupied state (VBM) at     -2.63707264 eV
  | Occupation number:      1.00000000

  Lowest unoccupied state (CBM) at    -0.89487654 eV
  | Occupation number:      0.00000000

  Overall HOMO-LUMO gap:      1.74219610 eV.

  Total energy components:
  | Sum of eigenvalues            :         -84.66251651 Ha       -2303.78428954 eV
  | XC energy correction          :         -18.84301703 Ha        -512.74458143 eV
  | XC potential correction       :          24.08034428 Ha         655.25950710 eV
  | Free-atom electrostatic energy:         -71.60310562 Ha       -1948.41963835 eV
  | Hartree energy correction     :          -2.55151378 Ha         -69.43022241 eV
  | van der Waals energy corr.    :           0.00000000 Ha           0.00000000 eV
  | Entropy correction            :          -0.00010367 Ha          -0.00282095 eV
  | ---------------------------
  | Total energy                  :        -153.57980865 Ha       -4179.11922462 eV
  | Total energy, T -> 0          :        -153.57991232 Ha       -4179.12204557 eV  <-- do not rely on this value for anything but (periodic) metals
  | Electronic free energy        :        -153.58001599 Ha       -4179.12486652 eV

  Derived energy quantities:
  | Kinetic energy                :         153.15615176 Ha        4167.59093396 eV
  | Electrostatic energy          :        -287.89294338 Ha       -7833.96557716 eV
  | Energy correction for multipole
  | error in Hartree potential    :           0.00155548 Ha           0.04232684 eV
  | Sum of eigenvalues per atom                           :        -329.11204136 eV
  | Total energy (T->0) per atom                          :        -597.01743508 eV  <-- do not rely on this value for anything but (periodic) metals
  | Electronic free energy per atom                       :        -597.01783807 eV

  Self-consistency convergence accuracy:
  | Change of charge density      : 0.1824E-03
  | Change of sum of eigenvalues  : -.6401E-02 eV
  | Change of total energy        : -.1806E-05 eV

  End self-consistency iteration #    10       :  max(cpu_time)    wall_clock(cpu1)
  | Time for this iteration                    :        0.373 s           0.373 s
  | Charge density update                      :        0.118 s           0.119 s
  | Density mixing                             :        0.008 s           0.007 s
  | Hartree multipole update                   :        0.002 s           0.003 s
  | Hartree multipole summation                :        0.073 s           0.072 s
  | Integration                                :        0.163 s           0.163 s
  | Solution of K.-S. eqns.                    :        0.008 s           0.008 s
  | Total energy evaluation                    :        0.000 s           0.000 s
------------------------------------------------------------

------------------------------------------------------------
          Begin self-consistency iteration #   11

  Date     :  20150727, Time     :  130523.045
------------------------------------------------------------
  Evaluating new KS density.
  Integration grid: deviation in total charge (<rho> - N_e) =   3.197442E-14
  Pulay mixing of updated and previous charge densities.

  Evaluating partitioned Hartree potential by multipole expansion.
  | Analytical far-field extrapolation by fixed multipoles:
  | Hartree multipole sum: apparent total charge =  -0.125695E-05
  Summing up the Hartree potential.
  Time summed over all CPUs for potential: real work        0.570 s, elapsed        0.575 s
  | RMS charge density error from multipole expansion :   0.112566E-01

  Integrating Hamiltonian matrix: batch-based integration.
  Time summed over all CPUs for integration: real work        1.241 s, elapsed        1.297 s

[...]

  Highest occupied state (VBM) at     -2.63713271 eV
  | Occupation number:      1.00000000

  Lowest unoccupied state (CBM) at    -0.89476730 eV
  | Occupation number:      0.00000000

  Overall HOMO-LUMO gap:      1.74236541 eV.

  Self-consistency cycle converged.

  End self-consistency iteration #    14       :  max(cpu_time)    wall_clock(cpu1)
  | Time for this iteration                    :        0.967 s           0.967 s
  | Charge density & force component update    :        0.595 s           0.595 s
  | Density mixing                             :        0.008 s           0.008 s
  | Hartree multipole update                   :        0.002 s           0.002 s
  | Hartree multipole summation                :        0.190 s           0.190 s
  | Integration                                :        0.162 s           0.162 s
  | Solution of K.-S. eqns.                    :        0.008 s           0.008 s
  | Total energy evaluation                    :        0.000 s           0.000 s
------------------------------------------------------------
  Obtaining max. number of non-zero basis functions in each batch .
  Evaluating KS electron density on previously omitted grid points.
  Evaluating non-empirical van der Waals correction (Tkatchenko/Scheffler 2009).
  Performing Hirshfeld analysis of fragment charges and moments.
  ----------------------------------------------------------------------
  | Atom     1: O
  |   Hirshfeld charge        :     -0.12124066
  |   Free atom volume        :     23.95238533
  |   Hirshfeld volume        :     24.36373521
  |   Hirshfeld dipole vector :      0.00181655       0.02350366       0.01841605
  |   Hirshfeld dipole moment :      0.02991442
  |   Hirshfeld second moments:      0.03284871      -0.00426497      -0.01133889
  |                                 -0.00426497      -0.01495536      -0.03089583
  |                                 -0.01133889      -0.03089583       0.01262716
  ----------------------------------------------------------------------
  | Atom     2: H
  |   Hirshfeld charge        :      0.05797689
  |   Free atom volume        :     10.44207651
  |   Hirshfeld volume        :     13.75546638
  |   Hirshfeld dipole vector :      0.00591678       0.00323245       0.00864503
  |   Hirshfeld dipole moment :      0.01096328
  |   Hirshfeld second moments:     -0.04245190       0.00646318       0.00727627
  |                                  0.00646318      -0.03258307       0.00347740
  |                                  0.00727627       0.00347740      -0.04225537
  ----------------------------------------------------------------------
  | Atom     3: H
  |   Hirshfeld charge        :      0.05877066
  |   Free atom volume        :     10.44207651
  |   Hirshfeld volume        :     14.97385655
  |   Hirshfeld dipole vector :     -0.00732068       0.00984835      -0.00642565
  |   Hirshfeld dipole moment :      0.01385176
  |   Hirshfeld second moments:     -0.06258632      -0.00734203      -0.01301068
  |                                 -0.00734203      -0.04373588      -0.00071318
  |                                 -0.01301068      -0.00071318      -0.06302190
  ----------------------------------------------------------------------
  | Atom     4: H
  |   Hirshfeld charge        :      0.07215237
  |   Free atom volume        :     10.44207651
  |   Hirshfeld volume        :     14.72219169
  |   Hirshfeld dipole vector :     -0.01398590      -0.00093764       0.00521819
  |   Hirshfeld dipole moment :      0.01495707
  |   Hirshfeld second moments:     -0.04255724       0.00714974      -0.00944968
  |                                  0.00714974      -0.04070491      -0.01664341
  |                                 -0.00944968      -0.01664341      -0.05966191
  ----------------------------------------------------------------------
  | Atom     5: O
  |   Hirshfeld charge        :     -0.30755890
  |   Free atom volume        :     23.95238533
  |   Hirshfeld volume        :     23.54802951
  |   Hirshfeld dipole vector :      0.05513236       0.03694384      -0.00082271
  |   Hirshfeld dipole moment :      0.06637094
  |   Hirshfeld second moments:     -0.01364469      -0.02021063       0.02255336
  |                                 -0.02021063       0.00491871      -0.05593407
  |                                  0.02255336      -0.05593407      -0.04853515
  ----------------------------------------------------------------------
  | Atom     6: H
  |   Hirshfeld charge        :      0.10334471
  |   Free atom volume        :     10.44207651
  |   Hirshfeld volume        :      9.42412334
  |   Hirshfeld dipole vector :      0.09029315      -0.00735893       0.03966452
  |   Hirshfeld dipole moment :      0.09889531
  |   Hirshfeld second moments:      0.05692330       0.01775817       0.00664480
  |                                  0.01775817       0.04945207      -0.00949485
  |                                  0.00664480      -0.00949485       0.05064755
  ----------------------------------------------------------------------
  | Atom     7: H
  |   Hirshfeld charge        :      0.13653506
  |   Free atom volume        :     10.44207651
  |   Hirshfeld volume        :      7.25393701
  |   Hirshfeld dipole vector :      0.03618244       0.10897257      -0.04932094
  |   Hirshfeld dipole moment :      0.12496697
  |   Hirshfeld second moments:      0.10903019      -0.01088988       0.01149709
  |                                 -0.01088988       0.09428472      -0.01665125
  |                                  0.01149709      -0.01665125       0.08730691
  ----------------------------------------------------------------------


  Total energy components:
  | Sum of eigenvalues            :         -84.66256325 Ha       -2303.78556143 eV
  | XC energy correction          :         -18.84299458 Ha        -512.74397062 eV
  | XC potential correction       :          24.08031699 Ha         655.25876442 eV
  | Free-atom electrostatic energy:         -71.60310562 Ha       -1948.41963835 eV
  | Hartree energy correction     :          -2.55146223 Ha         -69.42881983 eV
  | van der Waals energy corr.    :          -0.00049861 Ha          -0.01356782 eV
  | Entropy correction            :          -0.00010367 Ha          -0.00282095 eV
  | ---------------------------
  | Total energy                  :        -153.58030730 Ha       -4179.13279362 eV
  | Total energy, T -> 0          :        -153.58041097 Ha       -4179.13561457 eV  <-- do not rely on this value for anything but (periodic) metals
  | Electronic free energy        :        -153.58051464 Ha       -4179.13843552 eV

  Derived energy quantities:
  | Kinetic energy                :         153.15601289 Ha        4167.58715514 eV
  | Electrostatic energy          :        -287.89282700 Ha       -7833.96241033 eV
  | Energy correction for multipole
  | error in Hartree potential    :           0.00155526 Ha           0.04232080 eV
  | Sum of eigenvalues per atom                           :        -329.11222306 eV
  | Total energy (T->0) per atom                          :        -597.01937351 eV  <-- do not rely on this value for anything but (periodic) metals
  | Electronic free energy per atom                       :        -597.01977650 eV

  atomic forces [eV/Ang]:
  -----------------------
  atom #    1
   Hellmann-Feynman + Multipole  : -.274564E+01 -.701263E+01 -.775545E+01
   Pulay + GGA                   : 0.224541E+01 0.794714E+01 0.701770E+01
   Van der Waals               : 0.382818E-03 0.416768E-02 0.765179E-03
   ----------------------------------------------------------------
   Total forces(   1)            : -.499849E+00 0.938682E+00 -.736980E+00
  atom #    2
   Hellmann-Feynman + Multipole  : 0.419828E+00 -.871873E+00 0.346984E+00
   Pulay + GGA                   : -.924342E-01 0.114026E+00 -.869229E-01
   Van der Waals               : -.537057E-03 -.226038E-02 -.955999E-03
   ----------------------------------------------------------------
   Total forces(   2)            : 0.326857E+00 -.760108E+00 0.259106E+00
  atom #    3
   Hellmann-Feynman + Multipole  : 0.682003E-01 -.958554E-01 0.655792E-01
   Pulay + GGA                   : 0.185071E+00 0.337919E-01 0.200116E-01
   Van der Waals               : -.571934E-03 0.304504E-02 0.476406E-03
   ----------------------------------------------------------------
   Total forces(   3)            : 0.252699E+00 -.590185E-01 0.860672E-01
  atom #    4
   Hellmann-Feynman + Multipole  : -.199826E-01 -.483746E-01 0.226853E+00
   Pulay + GGA                   : -.490222E-01 -.410984E-01 0.170403E+00
   Van der Waals               : 0.522835E-03 0.313510E-02 -.135039E-03
   ----------------------------------------------------------------
   Total forces(   4)            : -.684820E-01 -.863379E-01 0.397121E+00
  atom #    5
   Hellmann-Feynman + Multipole  : -.144380E+02 -.512749E+01 0.702017E+00
   Pulay + GGA                   : 0.155153E+02 0.645627E+01 -.125316E+01
   Van der Waals               : 0.764990E-03 -.340390E-02 0.238681E-03
   ----------------------------------------------------------------
   Total forces(   5)            : 0.107812E+01 0.132538E+01 -.550903E+00
  atom #    6
   Hellmann-Feynman + Multipole  : -.552537E+00 0.755366E-01 -.136268E+00
   Pulay + GGA                   : 0.132560E+00 -.689214E-01 0.366842E-01
   Van der Waals               : -.403324E-03 -.304637E-02 -.267870E-03
   ----------------------------------------------------------------
   Total forces(   6)            : -.420380E+00 0.356880E-02 -.998515E-01
  atom #    7
   Hellmann-Feynman + Multipole  : -.720653E+00 -.148064E+01 0.705207E+00
   Pulay + GGA                   : 0.563170E-01 0.117554E+00 -.637247E-01
   Van der Waals               : -.158328E-03 -.163716E-02 -.121358E-03
   ----------------------------------------------------------------
   Total forces(   7)            : -.664495E+00 -.136473E+01 0.641360E+00
  Timings for vdw_correction_hirshfeld (Tkatchenko-Scheffler 2009):
  | CPU time:        0.967 s, Wall clock time:        0.967 s.
  Removing unitary transformations (pure translations, rotations) from forces on atoms.
  Atomic forces before filtering:
  | Net force on center of mass :  0.446779E-02 -.255747E-02 -.407973E-02 eV/A
  | Net torque on center of mass:  0.452167E-02 0.269950E-02 -.104422E-01 eV
  Atomic forces after filtering:
  | Net force on center of mass :  0.178406E-15 0.178406E-15 0.178406E-15 eV/A
  | Net torque on center of mass:  0.118011E-15 -.118011E-15 -.377634E-15 eV
 
  Energy and forces in a compact form:
  | Total energy uncorrected      :         -0.417913279362491E+04 eV
  | Total energy corrected        :         -0.417913561457282E+04 eV  <-- do not rely on this value for anything but (periodic) metals
  | Electronic free energy        :         -0.417913843552074E+04 eV
  Total atomic forces (unitary forces cleaned) [eV/Ang]:
  |   1         -0.499677274236274E+00          0.938932917425590E+00         -0.736159121231304E+00
  |   2          0.327052610139909E+00         -0.760071215190273E+00          0.259390705496652E+00
  |   3          0.252762087761311E+00         -0.584830840322284E-01          0.875476188115815E-01
  |   4         -0.689629649757379E-01         -0.860005398663269E-01          0.397735759402802E+00
  |   5          0.107666740758905E+01          0.132574416171133E+01         -0.550861065062251E+00
  |   6         -0.421960892546199E+00          0.422726747299192E-02         -0.991346969961832E-01
  |   7         -0.665880973732063E+00         -0.136434950752108E+01          0.641480799578703E+00
 
  ------------------------------------ 
  Start decomposition of the XC Energy 
  ------------------------------------ 
  Hartree-Fock part   :          0.000000000 Ha              0.000000000 eV
  ------------------------------------ 
  X Energy            :        -18.177344364 Ha           -494.630706670 eV
  C Energy GGA        :         -0.665650215 Ha            -18.113263946 eV
  Total XC Energy     :        -18.842994579 Ha           -512.743970616 eV
  LDA X and C from self-consistent density 
  X Energy LDA        :        -16.361383205 Ha           -445.215889342 eV
  C Energy LDA        :         -1.353837003 Ha            -36.839779238 eV
  ------------------------------------ 
  End decomposition of the XC Energy 
  ------------------------------------ 
  Performing Hirshfeld analysis of fragment charges and moments.
  ----------------------------------------------------------------------
  | Atom     1: O
  |   Hirshfeld charge        :     -0.12124066
  |   Free atom volume        :     23.95238533
  |   Hirshfeld volume        :     24.36373521
  |   Hirshfeld dipole vector :      0.00181655       0.02350366       0.01841605
  |   Hirshfeld dipole moment :      0.02991442
  |   Hirshfeld second moments:      0.03284871      -0.00426497      -0.01133889
  |                                 -0.00426497      -0.01495536      -0.03089583
  |                                 -0.01133889      -0.03089583       0.01262716
  ----------------------------------------------------------------------
  | Atom     2: H
  |   Hirshfeld charge        :      0.05797689
  |   Free atom volume        :     10.44207651
  |   Hirshfeld volume        :     13.75546638
  |   Hirshfeld dipole vector :      0.00591678       0.00323245       0.00864503
  |   Hirshfeld dipole moment :      0.01096328
  |   Hirshfeld second moments:     -0.04245190       0.00646318       0.00727627
  |                                  0.00646318      -0.03258307       0.00347740
  |                                  0.00727627       0.00347740      -0.04225537
  ----------------------------------------------------------------------
  | Atom     3: H
  |   Hirshfeld charge        :      0.05877066
  |   Free atom volume        :     10.44207651
  |   Hirshfeld volume        :     14.97385655
  |   Hirshfeld dipole vector :     -0.00732068       0.00984835      -0.00642565
  |   Hirshfeld dipole moment :      0.01385176
  |   Hirshfeld second moments:     -0.06258632      -0.00734203      -0.01301068
  |                                 -0.00734203      -0.04373588      -0.00071318
  |                                 -0.01301068      -0.00071318      -0.06302190
  ----------------------------------------------------------------------
  | Atom     4: H
  |   Hirshfeld charge        :      0.07215237
  |   Free atom volume        :     10.44207651
  |   Hirshfeld volume        :     14.72219169
  |   Hirshfeld dipole vector :     -0.01398590      -0.00093764       0.00521819
  |   Hirshfeld dipole moment :      0.01495707
  |   Hirshfeld second moments:     -0.04255724       0.00714974      -0.00944968
  |                                  0.00714974      -0.04070491      -0.01664341
  |                                 -0.00944968      -0.01664341      -0.05966191
  ----------------------------------------------------------------------
  | Atom     5: O
  |   Hirshfeld charge        :     -0.30755890
  |   Free atom volume        :     23.95238533
  |   Hirshfeld volume        :     23.54802951
  |   Hirshfeld dipole vector :      0.05513236       0.03694384      -0.00082271
  |   Hirshfeld dipole moment :      0.06637094
  |   Hirshfeld second moments:     -0.01364469      -0.02021063       0.02255336
  |                                 -0.02021063       0.00491871      -0.05593407
  |                                  0.02255336      -0.05593407      -0.04853515
  ----------------------------------------------------------------------
  | Atom     6: H
  |   Hirshfeld charge        :      0.10334471
  |   Free atom volume        :     10.44207651
  |   Hirshfeld volume        :      9.42412334
  |   Hirshfeld dipole vector :      0.09029315      -0.00735893       0.03966452
  |   Hirshfeld dipole moment :      0.09889531
  |   Hirshfeld second moments:      0.05692330       0.01775817       0.00664480
  |                                  0.01775817       0.04945207      -0.00949485
  |                                  0.00664480      -0.00949485       0.05064755
  ----------------------------------------------------------------------
  | Atom     7: H
  |   Hirshfeld charge        :      0.13653506
  |   Free atom volume        :     10.44207651
  |   Hirshfeld volume        :      7.25393701
  |   Hirshfeld dipole vector :      0.03618244       0.10897257      -0.04932094
  |   Hirshfeld dipole moment :      0.12496697
  |   Hirshfeld second moments:      0.10903019      -0.01088988       0.01149709
  |                                 -0.01088988       0.09428472      -0.01665125
  |                                  0.01149709      -0.01665125       0.08730691
  ----------------------------------------------------------------------


------------------------------------------------------------------------------
  Final output of selected total energy values:

  The following output summarizes some interesting total energy values
  at the end of a run (AFTER all relaxation, molecular dynamics, etc.).

  | Total energy of the DFT / Hartree-Fock s.c.f. calculation      :          -4179.132793625 eV
  | Final zero-broadening corrected energy (caution - metals only) :          -4179.135614573 eV
  | For reference only, the value of 1 Hartree used in FHI-aims is :             27.211384500 eV

  Before relying on these values, please be sure to understand exactly which
  total energy value is referred to by a given number. Different objects may
  all carry the same name 'total energy'. Definitions:

  Total energy of the DFT / Hartree-Fock s.c.f. calculation:
  | Note that this energy does not include ANY quantities calculated after the
  | s.c.f. cycle, in particular not ANY RPA, MP2, etc. many-body perturbation terms.

  Final zero-broadening corrected energy:
  | For metallic systems only, a broadening of the occupation numbers at the Fermi
  | level can be extrapolated back to zero broadening by an electron-gas inspired
  | formula. For all systems that are not real metals, this value can be
  | meaningless and should be avoided.

------------------------------------------------------------------------------

------------------------------------------------------------
          Leaving FHI-aims.
          Date     :  20150727, Time     :  130525.289

          Computational steps:
          | Number of self-consistency cycles          :           14

          Detailed time accounting                     :  max(cpu_time)    wall_clock(cpu1)
          | Total time                                 :        7.051 s           7.073 s
          | Preparation time                           :        0.170 s           0.678 s
          | Grid partitioning                          :        0.054 s           0.054 s
          | Preloading free-atom quantities on grid    :        0.014 s           0.014 s
          | Free-atom superposition energy             :        0.019 s           0.019 s
          | Total time for integrations                :        2.529 s           2.531 s
          | Total time for solution of K.-S. equations :        0.153 s           0.151 s
          | Total time for density & force components  :        2.139 s           2.138 s
          | Total time for mixing                      :        0.080 s           0.078 s
          | Total time for Hartree multipole update    :        0.031 s           0.034 s
          | Total time for Hartree multipole sum       :        1.251 s           1.251 s
          | Total time for total energy evaluation     :        0.003 s           0.004 s
          | Total time for scaled ZORA corrections     :        0.000 s           0.000 s
          | Total time for TS (2009) vdW correction    :        0.013 s           0.013 s

          Have a nice day.
------------------------------------------------------------
