  MPI-parallelism will be employed.
------------------------------------------------------------
          Invoking FHI-aims ...
          Version 081213
          Compiled on 2013/08/29 at 17:41:06 on host generoso.

          When using FHI-aims, please cite the following reference:

          Volker Blum, Ralf Gehrke, Felix Hanke, Paula Havu,
          Ville Havu, Xinguo Ren, Karsten Reuter, and Matthias Scheffler,
          'Ab Initio Molecular Simulations with Numeric Atom-Centered Orbitals: FHI-aims',
          Computer Physics Communications 180, 2175-2196 (2009)

          For any questions about FHI-aims, please visit the aimsclub website
          with its forums and wiki. Contributions to both the forums and the
          wiki are warmly encouraged - they are for you, and everyone is welcome there.

------------------------------------------------------------

  Date     :  20150727, Time     :  124256.032
  Time zero on CPU 1             :   0.459920000000000E-01  s.
  Internal wall clock time zero  :           207232976.032  s.

  Using        8 parallel tasks.
  Task        0 on host gen59 reporting.
  Task        1 on host gen59 reporting.
  Task        2 on host gen59 reporting.
  Task        3 on host gen59 reporting.
  Task        4 on host gen59 reporting.
  Task        5 on host gen59 reporting.
  Task        6 on host gen59 reporting.
  Task        7 on host gen59 reporting.

  Performing system and environment tests:
  | Environment variable OMP_NUM_THREADS correctly set to 1.
  | Checking for scalapack...
  | No scalapack compiled in.

  Obtaining array dimensions for all initial allocations:
  
  -----------------------------------------------------------------------
  Parsing control.in (first pass over file, find array dimensions only).
  The contents of control.in will be repeated verbatim below
  unless switched off by setting 'verbatim_writeout .false.' .
  in the first line of control.in .
  -----------------------------------------------------------------------
  
  #########################################################################################
  #
  #  Volker Blum, FHI 2008 : Test run input file control.in
  #
  #########################################################################################
  #
  #  Physical model
  #
    xc                 rpbe
    spin               none
    relativistic       atomic_zora scalar
    charge             0.
   vdw_correction_hirshfeld
  #
  #  SCF convergence
  #
    occupation_type    gaussian 0.01
    mixer              pulay
      n_max_pulay        10
      charge_mix_param   0.1
    sc_accuracy_rho    5E-5
    sc_accuracy_eev    5E-3
    sc_accuracy_etot   5E-6
    sc_iter_limit      3000
  #
  #  Eigenvalue solver
  #
    KS_method          lapack
      empty_states       8
      basis_threshold    0.e-5
  #
  #  Efficiency
  #
  #   all previous settings are now default, except stratmann still
  #   undecided. Continue to handle stratmann with care, if at all.
  #
  #  partition_type stratmann
    partition_type rho_r2
  #  hartree_partition_type stratmann
  #
  #  Oprions for large clusters (100's of atoms: memory saving / better scaling)
  #
  # for periodic systems:
  #
    density_update_method orbital
    packed_matrix_format none
  #  k_grid 6 6 6
  #  output k_eigenvalue 1
  #  distributed_spline_storage .true.
  #
  #  Relaxation
  #
  #  relax_geometry   bfgs 5.e-3
    sc_accuracy_forces 5.E-4
    final_forces_cleaned .true.
  #
  #  Output options
  #
  #  output mulliken
    output Hirshfeld
  #  output dipole
  
  #harmonic_length_scale 0.001
  
  ################################################################################
  #
  #  FHI-aims code project
  #  VB, Fritz-Haber Institut, 2007
  #
  #  Suggested "safe" defaults for H atom (to be pasted into control.in file)
  #  Basis constructed for a non-relativistic H2 molecule using the
  #  PW-LDA functional.
  #
  ################################################################################
    species        H
  #     global species definitions
      nucleus             1
      cut_pot             4.0  2.0  1.0
      cut_free_atom       finite 8.0
      logarithmic         0.00010000 100.00  1.0123
      basis_dep_cutoff    1d-4  # 1d-4 is safe default - please check 5d-4 if you wish!
      radial_base         24 7.0
      radial_multiplier   2
      angular_grids       specified
        division   0.2783  110
        division   0.3822  194
        division   0.5626  302
  #      division   0.5922  434
  #      division   0.6227  590
  #      division   0.7206  770
        outer_grid  302
      l_hartree           4
  ################################################################################
  #
  #  Definition of "minimal" basis
  #
  ################################################################################
  #     valence basis states
      valence      1  s   1.
  #     ion occupancy
      ion_occ      1  s   0.5
  ################################################################################
  #
  #  Suggested additional basis functions. For production calculations,
  #  uncomment them one after another (the most important basis functions are
  #  listed first).
  #
  ################################################################################
  #  "First tier" - improvements: -1014.90 meV to -62.69 meV
       hydro 2 s 2.1
       hydro 2 p 3.5
  #  "Second tier" - improvements: -12.89 meV to -1.83 meV
       hydro 1 s 0.85
       hydro 2 p 3.7
       hydro 2 s 1.2
       hydro 3 d 7
  #  "Third tier" - improvements: -0.25 meV to -0.12 meV
  #     hydro 4 f 11.2
  #     hydro 3 p 4.8
  #     hydro 4 d 9
  #     hydro 3 s 3.2
  
  ################################################################################
  #
  #  FHI-aims code project
  #  VB, Fritz-Haber Institut, 2007
  #
  #  Suggested "safe" defaults for O atom (to be pasted into control.in file)
  #  All values have been tested for a non-relativistic, non-spinpolarized O2
  #  molecule using the PW-LDA functional. Validity for PBE is expected.
  #
  #  Constructed for dimers: 1.0 A, 1.208 A, 1.5 A, 2.0 A, 3.0 A
  #
  ################################################################################
    species        O
  #     global species definitions
      nucleus             8
      mass                15.9994
      l_hartree           4
      cut_pot             4.0  2.0  1.0
      cut_free_atom       finite 8.0
      basis_dep_cutoff    1d-4  # 1d-4 is safe default - please check 5d-4 if you wish!
      logarithmic         0.00010000 100.00  1.0123
      radial_base         36 7.0
      radial_multiplier   2
       angular_grids specified
        division   0.4087  110
        division   0.5181  194
        division   0.6184  302
  #      division   0.7315  434
  #      division   0.7934  590
  #      division   0.9656  770
  #      division   1.4041  974
  #      outer_grid 974
        outer_grid 302
  ################################################################################
  #
  #  Definition of "minimal" basis
  #
  ################################################################################
  #     valence basis states
      valence      2  s   2.
      valence      2  p   4.
  #     ion occupancy
      ion_occ      2  s   1.
      ion_occ      2  p   3.
  ################################################################################
  #
  #  Suggested additional basis functions. For production calculations,
  #  uncomment them one after another (the most important basis functions are
  #  listed first).
  #
  ################################################################################
  #  "First tier" - improvements: -699.05 meV to -159.38 meV
       hydro 2 p 1.8
       hydro 3 d 7.6
       hydro 3 s 6.4
  #  "Second tier" - improvements: -49.91 meV to -5.39 meV
       hydro 4 f 11.6
       hydro 3 p 6.2
       hydro 3 d 5.6
       hydro 5 g 17.6
       hydro 1 s 0.75
  #  "Third tier" - improvements: -2.83 meV to -0.50 meV
  #     ionic 2 p auto
  #     hydro 4 f 10.8
  #     hydro 4 d 4.7
  #     hydro 2 s 6.8
  #  "Fourth tier" - improvements: -0.40 meV to -0.12 meV
  #     hydro 3 p 5
  #     hydro 3 s 3.3
  #     hydro 5 g 15.6
  #     hydro 4 f 17.6
  #     hydro 4 d 14
  # Further basis functions - -0.08 meV and below
  #     hydro 3 s 2.1
  #     hydro 4 d 11.6
  #     hydro 3 p 16
  #     hydro 2 s 17.2
  
  
  -----------------------------------------------------------------------
  Completed first pass over input file control.in .
  -----------------------------------------------------------------------
  
  
  -----------------------------------------------------------------------
  Parsing geometry.in (first pass over file, find array dimensions only).
  The contents of geometry.in will be repeated verbatim below
  unless switched off by setting 'verbatim_writeout .false.' .
  in the first line of geometry.in .
  -----------------------------------------------------------------------
  
  atom      -4.053030000      0.065001000     -1.525160000  O
  atom      -4.566710000      0.974813000     -1.912820000  H
  atom      -3.067820000      0.330172000     -1.477310000  H
  atom      -4.370360000     -0.049164000     -0.572274000  H
  atom      -5.293160000      2.192130000     -2.328800000  O
  atom      -4.829300000      2.988660000     -1.973850000  H
  atom      -5.428570000      2.328640000     -3.235170000  H
  atom      -1.645860000      0.870179000     -1.502250000  O
  atom      -1.568890000      1.501730000     -0.721051000  H
  atom      -0.824432000      0.282220000     -1.377720000  H
  atom      -4.066610000      4.258280000     -0.900064000  O
  atom      -3.224110000      3.876870000     -0.569443000  H
  atom      -3.737450000      5.116530000     -1.322720000  H
  atom      -5.628340000      3.730740000      1.385610000  O
  atom      -6.090650000      4.418470000      1.860350000  H
  atom      -5.158540000      4.200260000      0.615875000  H
  
  -----------------------------------------------------------------------
  Completed first pass over input file geometry.in .
  -----------------------------------------------------------------------
  
 
  Basic array size parameters: 
  | Number of species                 :        2
  | Number of atoms                   :       16
  | Max. basis fn. angular momentum   :        4
  | Max. atomic/ionic basis occupied n:        2
  | Max. number of basis fn. types    :        2
  | Max. radial fns per species/type  :        8
  | Max. logarithmic grid size        :     1301
  | Max. radial integration grid size :       73
  | Max. angular integration grid size:      302
  | Max. angular grid division number :        8
  | Radial grid for Hartree potential :     1301
  | Number of spin channels           :        1

------------------------------------------------------------
          Reading file control.in.
------------------------------------------------------------
  XC: Using RPBE gradient-corrected functionals.
  Spin treatment: No spin polarisation.
  Scalar relativistic treatment of kinetic energy: on-site free-atom approximation to ZORA.
  Charge =   0.000000E+00: Neutral system requested explicitly.
  Using non-empirical van der Waals correction (Hirshfeld partitioning):
  Occupation type: Gaussian broadening, width =   0.100000E-01 eV.
  Using pulay charge density mixing.
  Pulay mixing - number of memorized iterations:   10
  Charge density mixing - mixing parameter:     0.1000
  Convergence accuracy of self-consistent charge density: 0.5000E-04
  Convergence accuracy of sum of eigenvalues: 0.5000E-02
  Convergence accuracy of total energy: 0.5000E-05
  Maximum number of s.-c. iterations  :  3000
  Kohn-Sham eigenvalues and eigenfunctions calculated by lapack diagonalisation (D&C).
  Number of empty states per atom:        8
  Threshold for basis singularities: 0.0000E+00
  Partition function in integrals calculations: rho / r^2
 Using packed matrix format           0
  Convergence accuracy of forces: 0.5000E-03
  Cleaning forces before final output.
  Hirshfeld charge analysis will be performed.
 
  Reading configuration options for species H                   .
  | Found nuclear charge :   1.0000
  | Found cutoff potl. onset [A], width [A], scale factor :    4.00000    2.00000    1.00000
  | Found cutoff specification for free atom: Cutoff potential begins at    8.00000 A.
  | Found logarithmic grid data [bohr] : 0.1000E-03 0.1000E+03 0.1012E+01
  | Threshold for basis-dependent cutoff potential is   0.100000E-03
  | Found data for basic radial integration grid :    24 points, outermost radius =    7.000 A
  | Found multiplier for basic radial grid :   2
  | Found angular grid specification: user-specified.
  | Specified grid contains     4 separate shells.
  | Check grid settings after all constraints further below.
  | Found l_max for Hartree potential  :   4
  | Found free-atom valence shell :  1 s   1.000
  | No ionic wave fns used. Skipping ion_occ.
  | Found hydrogenic basis function :  2 s   2.100
  | Found hydrogenic basis function :  2 p   3.500
  | Found hydrogenic basis function :  1 s   0.850
  | Found hydrogenic basis function :  2 p   3.700
  | Found hydrogenic basis function :  2 s   1.200
  | Found hydrogenic basis function :  3 d   7.000
  Species H                   : Missing cutoff potential type.
  Defaulting to exp(1/x)/(1-x)^2 type cutoff potential.
  Species H : On-site basis accuracy parameter (for Gram-Schmidt orthonormalisation) not specified.
  Using default value basis_acc =  0.1000000E-03.
  Species H                   : Using default innermost maximum threshold i_radial=  2 for radial functions.
  Species H                   : Basic radial grid will be enhanced according to radial_multiplier =   2, to contain    49 grid points.
 
  Reading configuration options for species O                   .
  | Found nuclear charge :   8.0000
  | Found atomic mass :    15.9994000000000      amu
  | Found l_max for Hartree potential  :   4
  | Found cutoff potl. onset [A], width [A], scale factor :    4.00000    2.00000    1.00000
  | Found cutoff specification for free atom: Cutoff potential begins at    8.00000 A.
  | Threshold for basis-dependent cutoff potential is   0.100000E-03
  | Found logarithmic grid data [bohr] : 0.1000E-03 0.1000E+03 0.1012E+01
  | Found data for basic radial integration grid :    36 points, outermost radius =    7.000 A
  | Found multiplier for basic radial grid :   2
  | Found angular grid specification: user-specified.
  | Specified grid contains     4 separate shells.
  | Check grid settings after all constraints further below.
  | Found free-atom valence shell :  2 s   2.000
  | Found free-atom valence shell :  2 p   4.000
  | No ionic wave fns used. Skipping ion_occ.
  | No ionic wave fns used. Skipping ion_occ.
  | Found hydrogenic basis function :  2 p   1.800
  | Found hydrogenic basis function :  3 d   7.600
  | Found hydrogenic basis function :  3 s   6.400
  | Found hydrogenic basis function :  4 f  11.600
  | Found hydrogenic basis function :  3 p   6.200
  | Found hydrogenic basis function :  3 d   5.600
  | Found hydrogenic basis function :  5 g  17.600
  | Found hydrogenic basis function :  1 s   0.750
  Species O                   : Missing cutoff potential type.
  Defaulting to exp(1/x)/(1-x)^2 type cutoff potential.
  Species O : On-site basis accuracy parameter (for Gram-Schmidt orthonormalisation) not specified.
  Using default value basis_acc =  0.1000000E-03.
  Species O                   : Using default innermost maximum threshold i_radial=  2 for radial functions.
  Species O                   : Basic radial grid will be enhanced according to radial_multiplier =   2, to contain    73 grid points.
 
  Finished reading input file 'control.in'. Consistency checks are next.
 
  Target number of points in a grid batch is not set. Defaulting to  100
  Method for grid partitioning is not set. Defaulting to parallel hash+maxmin partitioning.
  Batch size limit is not set. Defaulting to    200
  By default, will store active basis functions for each batch.
  If in need of memory, prune_basis_once .false. can be used to disable this option.
  communication_type for Hartree potential was not specified.
  Defaulting to calc_hartree .
  Pulay mixer: Number of initial linear mixing iterations not set.
  Defaulting to    0 iterations.
  Work space size for distributed Hartree potential not set.
  Defaulting to   0.200000E+03 MB.
  Algorithm-dependent basis array size parameters:
  | n_max_pulay                         :       10
  Geometry relaxation not requested: no relaxation will be performed.
  Handling of forces: Unphysical translation and rotation will be removed from forces.
  No accuracy limit for integral partition fn. given. Defaulting to 0.1000E-14.
  No threshold value for u(r) in integrations given. Defaulting to 0.1000E-05.
  No accuracy for occupation numbers given. Defaulting to 0.1000E-07.
  No threshold value for occupation numbers given. Defaulting to 0.0000E+00.
  No accuracy for fermi level given. Defaulting to 0.1000E-19.
  Maximum # of iterations to find E_F not set. Defaulting to  200.
  Will not use alltoall communication since running on < 1024 CPUs.
  Partitioning for Hartree potential was not defined. Using partition_type for integrals.
  | Reporting present value of keyword multip_moments_threshold  :       0.10000000E-09
  | This value may affect high angular momentum components of the Hartree potential in periodic systems.
  No q(lm)/r^(l+1) cutoff set for long-range Hartree potential.
  | Using default value of  0.100000E-09 .
  | Verify using the multipole_threshold keyword.
  Defaulting to new monopole extrapolation.
  Density update method: Loop over occupied states selected for charge density update.
------------------------------------------------------------


------------------------------------------------------------
          Reading geometry description geometry.in.
------------------------------------------------------------
  Input structure read successfully.
  The structure contains       16 atoms,  and a total of         51.000 electrons.

  Input geometry:
  | No unit cell requested.
  | Atomic structure:
  |       Atom                x [A]            y [A]            z [A]
  |    1: Species O             -4.053030         0.065001        -1.525160
  |    2: Species H             -4.566710         0.974813        -1.912820
  |    3: Species H             -3.067820         0.330172        -1.477310
  |    4: Species H             -4.370360        -0.049164        -0.572274
  |    5: Species O             -5.293160         2.192130        -2.328800
  |    6: Species H             -4.829300         2.988660        -1.973850
  |    7: Species H             -5.428570         2.328640        -3.235170
  |    8: Species O             -1.645860         0.870179        -1.502250
  |    9: Species H             -1.568890         1.501730        -0.721051
  |   10: Species H             -0.824432         0.282220        -1.377720
  |   11: Species O             -4.066610         4.258280        -0.900064
  |   12: Species H             -3.224110         3.876870        -0.569443
  |   13: Species H             -3.737450         5.116530        -1.322720
  |   14: Species O             -5.628340         3.730740         1.385610
  |   15: Species H             -6.090650         4.418470         1.860350
  |   16: Species H             -5.158540         4.200260         0.615875
  |

  | The smallest distance between any two atoms is         0.92654057 AA.
  |
  | The first atom of this pair is atom number                      5 .
  | The second atom of this pair is atom number                     7 .

  Structure-dependent array size parameters: 
  | Maximum number of distinct radial functions  :       18
  | Maximum number of basis functions            :      360
  | Number of Kohn-Sham states (occupied + empty):       90
------------------------------------------------------------

------------------------------------------------------------
          Preparing all fixed parts of the calculation.
------------------------------------------------------------
  Determining machine precision:
    2.225073858507201E-308
  Setting up grids for atomic and cluster calculations.

  Creating wave function, potential, and density for free atoms.

  Species: H

  List of occupied orbitals and eigenvalues:
    n    l              occ      energy [Ha]    energy [eV]
    1    0           1.0000        -0.241408        -6.5691


  Species: O

  List of occupied orbitals and eigenvalues:
    n    l              occ      energy [Ha]    energy [eV]
    1    0           2.0000       -18.944147      -515.4965
    2    0           2.0000        -0.883529       -24.0421
    2    1           4.0000        -0.330176        -8.9845

  Creating fixed part of basis set: Ionic, confined, hydrogenic.
 
  H                    hydrogenic:
 
  List of hydrogenic basis orbitals: 
    n    l      effective z      eigenvalue [eV]  inner max. [A]     outer max. [A]     outer radius [A]   
    2    0         2.100000       -14.9965           0.193241           1.317192           5.372934
    2    1         3.500000       -41.6672           0.602363           0.602363           4.056010
    1    0         0.850000        -9.8292           0.624864           0.624864           5.372934
    2    1         3.700000       -46.5653           0.573616           0.573616           3.909951
    2    0         1.200000        -4.5995           0.334977           2.228160           5.505921
    3    2         7.000000       -74.0753           0.680692           0.680692           3.769152
 
 
  O                    hydrogenic:
 
  List of hydrogenic basis orbitals: 
    n    l      effective z      eigenvalue [eV]  inner max. [A]     outer max. [A]     outer radius [A]   
    2    1         1.800000       -11.0118           1.178546           1.178546           5.432516
    3    2         7.600000       -87.3182           0.624117           0.624117           3.541422
    3    0         6.400000       -61.9209           0.061166           1.081887           4.306510
    4    3        11.600000      -114.4238           0.731621           0.731621           3.584982
    3    1         6.200000       -58.1113           0.255677           1.030255           4.306510
    3    2         5.600000       -47.4081           0.847222           0.847222           4.413102
    5    4        17.600000      -168.5799           0.749730           0.749730           3.372413
    1    0         0.750000        -7.6499           0.705275           0.705275           5.366508
 

  Adding cutoff potential to free-atom effective potential.
  Creating atomic-like basis functions for current effective potential.

  Species H                   :

  List of atomic basis orbitals and eigenvalues:
    n    l      energy [Ha]    energy [eV]    outer radius [A]
    1    0        -0.241374        -6.5681       5.372934


  Species O                   :

  List of atomic basis orbitals and eigenvalues:
    n    l      energy [Ha]    energy [eV]    outer radius [A]
    1    0       -18.944147      -515.4965       1.415745
    2    0        -0.883529       -24.0421       5.048305
    2    1        -0.330173        -8.9845       5.301302

  Assembling full basis from fixed parts.
  | Species H :   atomic orbital   1 s accepted.
  | Species H :    hydro orbital   2 s accepted.
  | Species H :    hydro orbital   1 s accepted.
  | Species H :    hydro orbital   2 s accepted.
  | Species H :    hydro orbital   2 p accepted.
  | Species H :    hydro orbital   2 p accepted.
  | Species H :    hydro orbital   3 d accepted.
  | Species O :   atomic orbital   1 s accepted.
  | Species O :    hydro orbital   3 s accepted.
  | Species O :   atomic orbital   2 s accepted.
  | Species O :    hydro orbital   1 s accepted.
  | Species O :    hydro orbital   3 p accepted.
  | Species O :   atomic orbital   2 p accepted.
  | Species O :    hydro orbital   2 p accepted.
  | Species O :    hydro orbital   3 d accepted.
  | Species O :    hydro orbital   3 d accepted.
  | Species O :    hydro orbital   4 f accepted.
  | Species O :    hydro orbital   5 g accepted.
 
  Basis size parameters after reduction:
  | Total number of radial functions:       18
  | Total number of basis functions :      360
 
  Testing on-site integration grid accuracy.
  |  Species  Function  <phi|h_atom|phi> (log., in eV)  <phi|h_atom|phi> (rad., in eV)
           1        1                 -6.5683835025                 -6.5684759159
           1        2                 13.3711789951                 13.3708738703
           1        3                 23.6590910787                 23.6532055418
           1        4                 16.2963827186                 16.1870710655 ***
           1        5                 28.7627214838                 28.7627215090
           1        6                 59.5965249172                 59.5965950857
           1        7                 60.2220506392                 60.2220503827
           2        8               -515.4964576505               -515.4964530710
           2        9                 15.3030791347                 15.3030722972
           2       10                -21.7296094581                -21.7296135470
           2       11                 14.2969371730                 14.2969701621
           2       12                 21.0679693190                 21.0679697493
           2       13                 -2.3833606469                 -2.3833613176
           2       14                 13.7067136422                 13.7066766629
           2       15                 45.8013116808                 45.8013116965
           2       16                 52.2309815402                 52.2309831494
           2       17                 85.4120732416                 85.4120732763
           2       18                142.1019167745                142.1019167817
 * Note: Onsite integrals marked "***" above are less accurate than
 * onsite_accuracy_threshold =    0.03000 eV. Usually, this is harmless.
 * When in doubt, tighten the "radial" and/or "radial_multiplier" flags to check.

  Preparing densities etc. for the partition functions (integrals / Hartree potential).

  Preparations completed.
  max(cpu_time)          :      0.171 s.
  Wall clock time (cpu1) :      0.512 s.
------------------------------------------------------------

------------------------------------------------------------
          Begin self-consistency loop: Initialization.

          Date     :  20150727, Time     :  124256.594
------------------------------------------------------------

  Initializing index lists of integration centers etc. from given atomic structure:
  | Number of centers in hartree potential         :        16
  | Number of centers in hartree multipole         :        16
  | Number of centers in electron density summation:        16
  | Number of centers in basis integrals           :        16
  | Number of centers in integrals                 :        16
  Partitioning the integration grid into batches with parallel hashing+maxmin method.
  | Number of batches:     2096
  | Maximal batch size:     199
  | Minimal batch size:      56
  | Average batch size:      99.382
  | Standard deviation of batch sizes:      33.777

  Integration load balanced across     8 MPI tasks.
  Work distribution over tasks is as follows:
  Task     0 has      25998 integration points.
  Task     1 has      26009 integration points.
  Task     2 has      26075 integration points.
  Task     3 has      26079 integration points.
  Task     4 has      26085 integration points.
  Task     5 has      26027 integration points.
  Task     6 has      26024 integration points.
  Task     7 has      26007 integration points.
  Initializing partition tables, free-atom densities, potentials, etc. across the integration grid (initialize_grid_storage).
  | Net number of integration points:   208304
  | of which are non-zero points    :   207756
  Obtaining max. number of non-zero basis functions in each batch (get_n_compute_maxes).
  | Maximal number of non-zero basis functions:      356 in task     0
  | Maximal number of non-zero basis functions:      356 in task     1
  | Maximal number of non-zero basis functions:      357 in task     2
  | Maximal number of non-zero basis functions:      356 in task     3
  | Maximal number of non-zero basis functions:      356 in task     4
  | Maximal number of non-zero basis functions:      356 in task     5
  | Maximal number of non-zero basis functions:      357 in task     6
  | Maximal number of non-zero basis functions:      355 in task     7
  Integrating Hamiltonian matrix: batch-based integration.
  Time summed over all CPUs for integration: real work        7.943 s, elapsed        8.093 s
  Integrating overlap matrix.
  Time summed over all CPUs for integration: real work        4.288 s, elapsed        4.373 s

  Updating Kohn-Sham eigenvalues, eigenvectors, occupation numbers, and Fermi level.
  Solving generalized eigenproblem
  Updating Kohn-Sham eigenvalues and eigenfunctions.
  Transforming overlap matrix and checking for singularities.
  Overlap matrix is nonsingular:
  | Lowest eigenvalue:  0.236732E-03
  Solving real generalised eigenvalue problem by standard LAPACK (fast)
  Determining occupation numbers for Kohn-Sham eigenstates.
  | Chemical potential (Fermi level) in eV                 : -.28190696E+01
  | Error in electron count due to remaining E_F inaccuracy: -.35839776E-10
  | Maximum occupation number of highest empty state:  0.00E+00

  Writing Kohn-Sham eigenvalues.

  State    Occupation    Eigenvalue [Ha]    Eigenvalue [eV]
      1       2.00000         -19.065147         -518.78904
      2       2.00000         -19.064974         -518.78433
      3       2.00000         -19.045341         -518.25009
      4       2.00000         -19.044608         -518.23016
      5       2.00000         -19.042490         -518.17251
      6       2.00000          -1.129568          -30.73710
      7       2.00000          -1.115182          -30.34564
      8       2.00000          -1.093646          -29.75962
      9       2.00000          -1.086082          -29.55378
     10       2.00000          -1.081741          -29.43568
     11       2.00000          -0.654006          -17.79641
     12       2.00000          -0.639922          -17.41315
     13       2.00000          -0.623655          -16.97051
     14       2.00000          -0.622636          -16.94278
     15       2.00000          -0.607361          -16.52714
     16       2.00000          -0.602339          -16.39047
     17       2.00000          -0.535108          -14.56103
     18       2.00000          -0.518428          -14.10715
     19       2.00000          -0.508540          -13.83807
     20       2.00000          -0.498939          -13.57681
     21       2.00000          -0.485438          -13.20944
     22       2.00000          -0.452928          -12.32479
     23       2.00000          -0.439178          -11.95064
     24       2.00000          -0.435821          -11.85930
     25       2.00000          -0.430036          -11.70188
     26       1.00000          -0.103599           -2.81907
     27       0.00000          -0.072266           -1.96645
     28       0.00000          -0.059237           -1.61193
     29       0.00000          -0.046341           -1.26100
     30       0.00000          -0.034469           -0.93794
     31       0.00000          -0.020165           -0.54871
     32       0.00000           0.022566            0.61407
     33       0.00000           0.030009            0.81659
     34       0.00000           0.039001            1.06126
     35       0.00000           0.041841            1.13854
     36       0.00000           0.054719            1.48897
     37       0.00000           0.070382            1.91519
     38       0.00000           0.076020            2.06860
     39       0.00000           0.082110            2.23434
     40       0.00000           0.089594            2.43798
     41       0.00000           0.095926            2.61028
     42       0.00000           0.101101            2.75110
     43       0.00000           0.105190            2.86236
     44       0.00000           0.119194            3.24342
     45       0.00000           0.124273            3.38163
     46       0.00000           0.128577            3.49876
     47       0.00000           0.136345            3.71014
     48       0.00000           0.145017            3.94612
     49       0.00000           0.150668            4.09988
     50       0.00000           0.156052            4.24640
     51       0.00000           0.174955            4.76078
     52       0.00000           0.186953            5.08725
     53       0.00000           0.207654            5.65055
     54       0.00000           0.217286            5.91265
     55       0.00000           0.233800            6.36203
     56       0.00000           0.246660            6.71197
     57       0.00000           0.252290            6.86515
     58       0.00000           0.271708            7.39356
     59       0.00000           0.282636            7.69091
     60       0.00000           0.298132            8.11259
     61       0.00000           0.307565            8.36928
     62       0.00000           0.332841            9.05707
     63       0.00000           0.347029            9.44313
     64       0.00000           0.359656            9.78673
     65       0.00000           0.361005            9.82345
     66       0.00000           0.372029           10.12341
     67       0.00000           0.376341           10.24076
     68       0.00000           0.391201           10.64511
     69       0.00000           0.411859           11.20726
     70       0.00000           0.424212           11.54339
     71       0.00000           0.427512           11.63320
     72       0.00000           0.438847           11.94164
     73       0.00000           0.449665           12.23600
     74       0.00000           0.460620           12.53410
     75       0.00000           0.469080           12.76431
     76       0.00000           0.482475           13.12880
     77       0.00000           0.508252           13.83024
     78       0.00000           0.515937           14.03936
     79       0.00000           0.540922           14.71925
     80       0.00000           0.563321           15.32875
     81       0.00000           0.578257           15.73517
     82       0.00000           0.581035           15.81077
     83       0.00000           0.616136           16.76591
     84       0.00000           0.643962           17.52310
     85       0.00000           0.678560           18.46457
     86       0.00000           0.706404           19.22223
     87       0.00000           0.729125           19.84050
     88       0.00000           0.753016           20.49061
     89       0.00000           0.764938           20.81503
     90       0.00000           0.778796           21.19212

  Highest occupied state (VBM) at    -11.70188142 eV
  | Occupation number:      2.00000000

  Lowest unoccupied state (CBM) at    -2.81906955 eV
  | Occupation number:      1.00000000

  Overall HOMO-LUMO gap:      8.88281187 eV.
  Calculating total energy contributions from superposition of free atom densities.

  Total energy components:
  | Sum of eigenvalues            :        -217.74982255 Ha       -5925.27414614 eV
  | XC energy correction          :         -45.95604998 Ha       -1250.52774617 eV
  | XC potential correction       :          58.73772603 Ha        1598.33484762 eV
  | Free-atom electrostatic energy:        -178.57060414 Ha       -4859.15336968 eV
  | Hartree energy correction     :           0.00000000 Ha           0.00000000 eV
  | van der Waals energy corr.    :           0.00000000 Ha           0.00000000 eV
  | Entropy correction            :          -0.00010367 Ha          -0.00282095 eV
  | ---------------------------
  | Total energy                  :        -383.53875064 Ha      -10436.62041437 eV
  | Total energy, T -> 0          :        -383.53885431 Ha      -10436.62323532 eV  <-- do not rely on this value for anything but (periodic) metals
  | Electronic free energy        :        -383.53895798 Ha      -10436.62605627 eV

  Derived energy quantities:
  | Kinetic energy                :         379.89475320 Ha       10337.46219899 eV
  | Electrostatic energy          :        -717.47745386 Ha      -19523.55486719 eV
  | Energy correction for multipole
  | error in Hartree potential    :           0.00000000 Ha           0.00000000 eV
  | Sum of eigenvalues per atom                           :        -370.32963413 eV
  | Total energy (T->0) per atom                          :        -652.28895221 eV  <-- do not rely on this value for anything but (periodic) metals
  | Electronic free energy per atom                       :        -652.28912852 eV
  Initialize hartree_potential_storage
  Max. number of atoms included in rho_multipole:           16

  End scf initialization - timings             :  max(cpu_time)    wall_clock(cpu1)
  | Time for scf. initialization               :        2.180 s           2.179 s
  | Boundary condition initialization          :        0.000 s           0.000 s
  | Integration                                :        1.563 s           1.562 s
  | Solution of K.-S. eqns.                    :        0.212 s           0.213 s
  | Grid partitioning                          :        0.168 s           0.168 s
  | Preloading free-atom quantities on grid    :        0.013 s           0.013 s
  | Free-atom superposition energy             :        0.072 s           0.073 s
  | Total energy evaluation                    :        0.001 s           0.000 s
------------------------------------------------------------

------------------------------------------------------------
          Begin self-consistency iteration #    1

  Date     :  20150727, Time     :  124258.773
------------------------------------------------------------
  Evaluating new KS density.
  Integration grid: deviation in total charge (<rho> - N_e) =  -3.581135E-11
  Pulay mixing of updated and previous charge densities.

  Evaluating partitioned Hartree potential by multipole expansion.
  | Analytical far-field extrapolation by fixed multipoles:
  | Hartree multipole sum: apparent total charge =  -0.154982E-05
  Summing up the Hartree potential.
  Time summed over all CPUs for potential: real work        2.895 s, elapsed        2.910 s
  | RMS charge density error from multipole expansion :   0.165563E-02

  Integrating Hamiltonian matrix: batch-based integration.
  Time summed over all CPUs for integration: real work        7.930 s, elapsed        8.069 s

  Updating Kohn-Sham eigenvalues, eigenvectors, occupation numbers, and Fermi level.
  Solving generalized eigenproblem
  Updating Kohn-Sham eigenvalues and eigenfunctions.
  Solving real generalised eigenvalue problem by standard LAPACK (fast)
  Determining occupation numbers for Kohn-Sham eigenstates.
  | Chemical potential (Fermi level) in eV                 : -.26143306E+01
  | Error in electron count due to remaining E_F inaccuracy: 0.21316282E-12
  | Maximum occupation number of highest empty state:  0.00E+00

  Writing Kohn-Sham eigenvalues.

  State    Occupation    Eigenvalue [Ha]    Eigenvalue [eV]
      1       2.00000         -19.012774         -517.36392
      2       2.00000         -18.993945         -516.85153
      3       2.00000         -18.975786         -516.35740
      4       2.00000         -18.974941         -516.33440
      5       2.00000         -18.959095         -515.90322
      6       2.00000          -1.102670          -30.00517
      7       2.00000          -1.083464          -29.48257
      8       2.00000          -1.056606          -28.75171
      9       2.00000          -1.050211          -28.57770
     10       2.00000          -1.043189          -28.38663
     11       2.00000          -0.624075          -16.98195
     12       2.00000          -0.618642          -16.83412
     13       2.00000          -0.600812          -16.34893
     14       2.00000          -0.586137          -15.94960
     15       2.00000          -0.576595          -15.68994
     16       2.00000          -0.574811          -15.64139
     17       2.00000          -0.504879          -13.73845
     18       2.00000          -0.484504          -13.18403
     19       2.00000          -0.475669          -12.94361
     20       2.00000          -0.458385          -12.47328
     21       2.00000          -0.455175          -12.38595
     22       2.00000          -0.418375          -11.38456
     23       2.00000          -0.402886          -10.96308
     24       2.00000          -0.402311          -10.94743
     25       2.00000          -0.383589          -10.43800
     26       1.00000          -0.096075           -2.61433
     27       0.00000          -0.064618           -1.75835
     28       0.00000          -0.053042           -1.44336
     29       0.00000          -0.037713           -1.02621
     30       0.00000          -0.027798           -0.75643
     31       0.00000          -0.013533           -0.36826
     32       0.00000           0.031605            0.86000
     33       0.00000           0.037646            1.02439
     34       0.00000           0.047439            1.29089
     35       0.00000           0.051691            1.40657
     36       0.00000           0.058827            1.60077
     37       0.00000           0.077662            2.11330
     38       0.00000           0.081777            2.22527
     39       0.00000           0.092011            2.50374
     40       0.00000           0.097540            2.65419
     41       0.00000           0.105916            2.88213
     42       0.00000           0.110755            3.01379
     43       0.00000           0.120034            3.26628
     44       0.00000           0.126605            3.44509
     45       0.00000           0.130162            3.54188
     46       0.00000           0.137040            3.72905
     47       0.00000           0.148529            4.04168
     48       0.00000           0.153286            4.17112
     49       0.00000           0.157210            4.27790
     50       0.00000           0.164493            4.47609
     51       0.00000           0.182846            4.97550
     52       0.00000           0.196285            5.34119
     53       0.00000           0.214378            5.83353
     54       0.00000           0.224695            6.11427
     55       0.00000           0.241307            6.56629
     56       0.00000           0.253765            6.90529
     57       0.00000           0.260180            7.07987
     58       0.00000           0.278718            7.58430
     59       0.00000           0.290291            7.89921
     60       0.00000           0.302323            8.22663
     61       0.00000           0.314720            8.56397
     62       0.00000           0.340176            9.25667
     63       0.00000           0.355344            9.66942
     64       0.00000           0.366681            9.97789
     65       0.00000           0.369078           10.04312
     66       0.00000           0.378915           10.31081
     67       0.00000           0.383461           10.43451
     68       0.00000           0.398345           10.83952
     69       0.00000           0.418683           11.39295
     70       0.00000           0.432166           11.75984
     71       0.00000           0.436356           11.87386
     72       0.00000           0.446465           12.14894
     73       0.00000           0.456229           12.41463
     74       0.00000           0.468875           12.75874
     75       0.00000           0.480281           13.06912
     76       0.00000           0.490990           13.36051
     77       0.00000           0.520672           14.16821
     78       0.00000           0.525225           14.29211
     79       0.00000           0.551406           15.00453
     80       0.00000           0.572270           15.57227
     81       0.00000           0.586627           15.96292
     82       0.00000           0.594008           16.16379
     83       0.00000           0.624020           16.98044
     84       0.00000           0.653953           17.79496
     85       0.00000           0.688480           18.73449
     86       0.00000           0.719073           19.56698
     87       0.00000           0.741070           20.16555
     88       0.00000           0.761450           20.72011
     89       0.00000           0.775500           21.10242
     90       0.00000           0.790498           21.51055

  Highest occupied state (VBM) at     -2.61433059 eV
  | Occupation number:      1.00000000

  Lowest unoccupied state (CBM) at    -1.75835383 eV
  | Occupation number:      0.00000000

  Overall HOMO-LUMO gap:      0.85597676 eV.

  Total energy components:
  | Sum of eigenvalues            :        -215.73512586 Ha       -5870.45146001 eV
  | XC energy correction          :         -46.17420858 Ha       -1256.46414374 eV
  | XC potential correction       :          59.02256204 Ha        1606.08562997 eV
  | Free-atom electrostatic energy:        -178.57060414 Ha       -4859.15336968 eV
  | Hartree energy correction     :          -1.96367973 Ha         -53.43444426 eV
  | van der Waals energy corr.    :           0.00000000 Ha           0.00000000 eV
  | Entropy correction            :          -0.00010367 Ha          -0.00282095 eV
  | ---------------------------
  | Total energy                  :        -383.42105628 Ha      -10433.41778771 eV
  | Total energy, T -> 0          :        -383.42115994 Ha      -10433.42060866 eV  <-- do not rely on this value for anything but (periodic) metals
  | Electronic free energy        :        -383.42126361 Ha      -10433.42342961 eV

  Derived energy quantities:
  | Kinetic energy                :         381.22286058 Ha       10373.60183936 eV
  | Electrostatic energy          :        -718.46970827 Ha      -19550.55548333 eV
  | Energy correction for multipole
  | error in Hartree potential    :           0.00024429 Ha           0.00664752 eV
  | Sum of eigenvalues per atom                           :        -366.90321625 eV
  | Total energy (T->0) per atom                          :        -652.08878804 eV  <-- do not rely on this value for anything but (periodic) metals
  | Electronic free energy per atom                       :        -652.08896435 eV

  Self-consistency convergence accuracy:
  | Change of charge density      : 0.6282E+00
  | Change of sum of eigenvalues  : 0.5482E+02 eV
  | Change of total energy        : 0.3203E+01 eV

  End self-consistency iteration #     1       :  max(cpu_time)    wall_clock(cpu1)
  | Time for this iteration                    :        2.104 s           2.104 s
  | Charge density update                      :        0.662 s           0.663 s
  | Density mixing                             :        0.003 s           0.003 s
  | Hartree multipole update                   :        0.005 s           0.006 s
  | Hartree multipole summation                :        0.364 s           0.364 s
  | Integration                                :        1.011 s           1.011 s
  | Solution of K.-S. eqns.                    :        0.057 s           0.057 s
  | Total energy evaluation                    :        0.000 s           0.000 s
------------------------------------------------------------

------------------------------------------------------------
          Begin self-consistency iteration #    2

  Date     :  20150727, Time     :  124300.878
------------------------------------------------------------
  Evaluating new KS density.
  Integration grid: deviation in total charge (<rho> - N_e) =   2.202682E-13
  Pulay mixing of updated and previous charge densities.

  Evaluating partitioned Hartree potential by multipole expansion.
  | Analytical far-field extrapolation by fixed multipoles:
  | Hartree multipole sum: apparent total charge =  -0.514102E-05
  Summing up the Hartree potential.
  Time summed over all CPUs for potential: real work        2.908 s, elapsed        2.974 s
  | RMS charge density error from multipole expansion :   0.672840E-02

  Integrating Hamiltonian matrix: batch-based integration.
  Time summed over all CPUs for integration: real work        7.959 s, elapsed        8.118 s

  Updating Kohn-Sham eigenvalues, eigenvectors, occupation numbers, and Fermi level.
  Solving generalized eigenproblem
  Updating Kohn-Sham eigenvalues and eigenfunctions.
  Solving real generalised eigenvalue problem by standard LAPACK (fast)
  Determining occupation numbers for Kohn-Sham eigenstates.
  | Chemical potential (Fermi level) in eV                 : -.21419187E+01
  | Error in electron count due to remaining E_F inaccuracy: 0.55422333E-12
  | Maximum occupation number of highest empty state:  0.00E+00

  Highest occupied state (VBM) at     -2.14191871 eV
  | Occupation number:      1.00000000

  Lowest unoccupied state (CBM) at    -1.28514005 eV
  | Occupation number:      0.00000000

  Overall HOMO-LUMO gap:      0.85677866 eV.

  Total energy components:
  | Sum of eigenvalues            :        -210.90471344 Ha       -5739.00925016 eV
  | XC energy correction          :         -46.72531398 Ha       -1271.46048450 eV
  | XC potential correction       :          59.74051755 Ha        1625.62219334 eV
  | Free-atom electrostatic energy:        -178.57060414 Ha       -4859.15336968 eV
  | Hartree energy correction     :          -6.82744862 Ha        -185.78432947 eV
  | van der Waals energy corr.    :           0.00000000 Ha           0.00000000 eV
  | Entropy correction            :          -0.00010367 Ha          -0.00282095 eV
  | ---------------------------
  | Total energy                  :        -383.28756262 Ha      -10429.78524046 eV
  | Total energy, T -> 0          :        -383.28766629 Ha      -10429.78806141 eV  <-- do not rely on this value for anything but (periodic) metals
  | Electronic free energy        :        -383.28776995 Ha      -10429.79088236 eV

  Derived energy quantities:
  | Kinetic energy                :         383.99781446 Ha       10449.11217654 eV
  | Electrostatic energy          :        -720.56006311 Ha      -19607.43693251 eV
  | Energy correction for multipole
  | error in Hartree potential    :           0.00010253 Ha           0.00279000 eV
  | Sum of eigenvalues per atom                           :        -358.68807814 eV
  | Total energy (T->0) per atom                          :        -651.86175384 eV  <-- do not rely on this value for anything but (periodic) metals
  | Electronic free energy per atom                       :        -651.86193015 eV

  Self-consistency convergence accuracy:
  | Change of charge density      : 0.4775E+00
  | Change of sum of eigenvalues  : 0.1314E+03 eV
  | Change of total energy        : 0.3633E+01 eV

  End self-consistency iteration #     2       :  max(cpu_time)    wall_clock(cpu1)
  | Time for this iteration                    :        2.116 s           2.116 s
  | Charge density update                      :        0.658 s           0.658 s
  | Density mixing                             :        0.006 s           0.006 s
  | Hartree multipole update                   :        0.005 s           0.005 s
  | Hartree multipole summation                :        0.373 s           0.373 s
  | Integration                                :        1.017 s           1.016 s
  | Solution of K.-S. eqns.                    :        0.056 s           0.057 s
  | Total energy evaluation                    :        0.000 s           0.000 s
------------------------------------------------------------

------------------------------------------------------------
          Begin self-consistency iteration #    3

  Date     :  20150727, Time     :  124302.994
------------------------------------------------------------
  Evaluating new KS density.
  Integration grid: deviation in total charge (<rho> - N_e) =   5.400125E-13
  Pulay mixing of updated and previous charge densities.

  Evaluating partitioned Hartree potential by multipole expansion.
  | Analytical far-field extrapolation by fixed multipoles:
  | Hartree multipole sum: apparent total charge =  -0.620952E-05
  Summing up the Hartree potential.
  Time summed over all CPUs for potential: real work        2.895 s, elapsed        2.910 s
  | RMS charge density error from multipole expansion :   0.138248E-01

  Integrating Hamiltonian matrix: batch-based integration.
  Time summed over all CPUs for integration: real work        7.930 s, elapsed        8.073 s

  Updating Kohn-Sham eigenvalues, eigenvectors, occupation numbers, and Fermi level.
  Solving generalized eigenproblem
  Updating Kohn-Sham eigenvalues and eigenfunctions.
  Solving real generalised eigenvalue problem by standard LAPACK (fast)
  Determining occupation numbers for Kohn-Sham eigenstates.
  | Chemical potential (Fermi level) in eV                 : -.21070888E+01
  | Error in electron count due to remaining E_F inaccuracy: 0.00000000E+00
  | Maximum occupation number of highest empty state:  0.00E+00

  Highest occupied state (VBM) at     -2.10708881 eV
  | Occupation number:      1.00000000

  Lowest unoccupied state (CBM) at    -2.10708881 eV
  | Occupation number:      1.00000000

  Overall HOMO-LUMO gap:      0.00000000 eV.

  Total energy components:
  | Sum of eigenvalues            :        -211.18716385 Ha       -5746.69511705 eV
  | XC energy correction          :         -46.72801793 Ha       -1271.53406292 eV
  | XC potential correction       :          59.73531387 Ha        1625.48059387 eV
  | Free-atom electrostatic energy:        -178.57060414 Ha       -4859.15336968 eV
  | Hartree energy correction     :          -6.53466200 Ha        -177.81720032 eV
  | van der Waals energy corr.    :           0.00000000 Ha           0.00000000 eV
  | Entropy correction            :          -0.00010367 Ha          -0.00282095 eV
  | ---------------------------
  | Total energy                  :        -383.28513406 Ha      -10429.71915610 eV
  | Total energy, T -> 0          :        -383.28523773 Ha      -10429.72197705 eV  <-- do not rely on this value for anything but (periodic) metals
  | Electronic free energy        :        -383.28534140 Ha      -10429.72479799 eV

  Derived energy quantities:
  | Kinetic energy                :         382.25274055 Ha       10401.62629922 eV
  | Electrostatic energy          :        -718.80985668 Ha      -19559.81139239 eV
  | Energy correction for multipole
  | error in Hartree potential    :          -0.00434371 Ha          -0.11819829 eV
  | Sum of eigenvalues per atom                           :        -359.16844482 eV
  | Total energy (T->0) per atom                          :        -651.85762357 eV  <-- do not rely on this value for anything but (periodic) metals
  | Electronic free energy per atom                       :        -651.85779987 eV

  Self-consistency convergence accuracy:
  | Change of charge density      : 0.2325E+00
  | Change of sum of eigenvalues  : -.7686E+01 eV
  | Change of total energy        : 0.6608E-01 eV

  End self-consistency iteration #     3       :  max(cpu_time)    wall_clock(cpu1)
  | Time for this iteration                    :        2.101 s           2.101 s
  | Charge density update                      :        0.656 s           0.655 s
  | Density mixing                             :        0.007 s           0.008 s
  | Hartree multipole update                   :        0.005 s           0.005 s
  | Hartree multipole summation                :        0.365 s           0.364 s
  | Integration                                :        1.011 s           1.011 s
  | Solution of K.-S. eqns.                    :        0.057 s           0.057 s
  | Total energy evaluation                    :        0.000 s           0.000 s
------------------------------------------------------------

------------------------------------------------------------
          Begin self-consistency iteration #    4

  Date     :  20150727, Time     :  124305.095
------------------------------------------------------------
  Evaluating new KS density.
  Integration grid: deviation in total charge (<rho> - N_e) =   2.842171E-14
  Pulay mixing of updated and previous charge densities.

  Evaluating partitioned Hartree potential by multipole expansion.
  | Analytical far-field extrapolation by fixed multipoles:
  | Hartree multipole sum: apparent total charge =  -0.741352E-05
  Summing up the Hartree potential.
  Time summed over all CPUs for potential: real work        2.898 s, elapsed        2.925 s
  | RMS charge density error from multipole expansion :   0.171034E-01

  Integrating Hamiltonian matrix: batch-based integration.
  Time summed over all CPUs for integration: real work        7.916 s, elapsed        8.072 s

  Updating Kohn-Sham eigenvalues, eigenvectors, occupation numbers, and Fermi level.
  Solving generalized eigenproblem
  Updating Kohn-Sham eigenvalues and eigenfunctions.
  Solving real generalised eigenvalue problem by standard LAPACK (fast)
  Determining occupation numbers for Kohn-Sham eigenstates.
  | Chemical potential (Fermi level) in eV                 : -.20122869E+01
  | Error in electron count due to remaining E_F inaccuracy: 0.10582966E-08
  | Maximum occupation number of highest empty state:  0.00E+00

  Highest occupied state (VBM) at     -2.01228686 eV
  | Occupation number:      1.00000000

  Lowest unoccupied state (CBM) at    -1.15739172 eV
  | Occupation number:      0.00000000

  Overall HOMO-LUMO gap:      0.85489514 eV.

  Total energy components:
  | Sum of eigenvalues            :        -210.18437536 Ha       -5719.40785385 eV
  | XC energy correction          :         -46.86642593 Ha       -1275.30033618 eV
  | XC potential correction       :          59.91321464 Ha        1630.32152019 eV
  | Free-atom electrostatic energy:        -178.57060414 Ha       -4859.15336968 eV
  | Hartree energy correction     :          -7.57222732 Ha        -206.05078910 eV
  | van der Waals energy corr.    :           0.00000000 Ha           0.00000000 eV
  | Entropy correction            :          -0.00010367 Ha          -0.00282095 eV
  | ---------------------------
  | Total energy                  :        -383.28041811 Ha      -10429.59082861 eV
  | Total energy, T -> 0          :        -383.28052178 Ha      -10429.59364956 eV  <-- do not rely on this value for anything but (periodic) metals
  | Electronic free energy        :        -383.28062545 Ha      -10429.59647050 eV

  Derived energy quantities:
  | Kinetic energy                :         382.33747919 Ha       10403.93215490 eV
  | Electrostatic energy          :        -718.75147137 Ha      -19558.22264733 eV
  | Energy correction for multipole
  | error in Hartree potential    :          -0.00578898 Ha          -0.15752615 eV
  | Sum of eigenvalues per atom                           :        -357.46299087 eV
  | Total energy (T->0) per atom                          :        -651.84960310 eV  <-- do not rely on this value for anything but (periodic) metals
  | Electronic free energy per atom                       :        -651.84977941 eV

  Self-consistency convergence accuracy:
  | Change of charge density      : 0.1030E+00
  | Change of sum of eigenvalues  : 0.2729E+02 eV
  | Change of total energy        : 0.1283E+00 eV

  End self-consistency iteration #     4       :  max(cpu_time)    wall_clock(cpu1)
  | Time for this iteration                    :        2.104 s           2.103 s
  | Charge density update                      :        0.655 s           0.655 s
  | Density mixing                             :        0.009 s           0.008 s
  | Hartree multipole update                   :        0.005 s           0.005 s
  | Hartree multipole summation                :        0.367 s           0.367 s
  | Integration                                :        1.011 s           1.011 s
  | Solution of K.-S. eqns.                    :        0.057 s           0.057 s
  | Total energy evaluation                    :        0.000 s           0.000 s
------------------------------------------------------------

------------------------------------------------------------
          Begin self-consistency iteration #    5

  Date     :  20150727, Time     :  124307.198
------------------------------------------------------------
  Evaluating new KS density.
  Integration grid: deviation in total charge (<rho> - N_e) =   1.058297E-09
  Pulay mixing of updated and previous charge densities.

  Evaluating partitioned Hartree potential by multipole expansion.
  | Analytical far-field extrapolation by fixed multipoles:
  | Hartree multipole sum: apparent total charge =  -0.755940E-05
  Summing up the Hartree potential.
  Time summed over all CPUs for potential: real work        2.895 s, elapsed        2.910 s
  | RMS charge density error from multipole expansion :   0.176341E-01

  Integrating Hamiltonian matrix: batch-based integration.
  Time summed over all CPUs for integration: real work        7.911 s, elapsed        8.050 s

  Updating Kohn-Sham eigenvalues, eigenvectors, occupation numbers, and Fermi level.
  Solving generalized eigenproblem
  Updating Kohn-Sham eigenvalues and eigenfunctions.
  Solving real generalised eigenvalue problem by standard LAPACK (fast)
  Determining occupation numbers for Kohn-Sham eigenstates.
  | Chemical potential (Fermi level) in eV                 : -.20220617E+01
  | Error in electron count due to remaining E_F inaccuracy: 0.33153924E-10
  | Maximum occupation number of highest empty state:  0.00E+00

  Highest occupied state (VBM) at     -2.02206165 eV
  | Occupation number:      1.00000000

  Lowest unoccupied state (CBM) at    -1.15160714 eV
  | Occupation number:      0.00000000

  Overall HOMO-LUMO gap:      0.87045451 eV.

  Total energy components:
  | Sum of eigenvalues            :        -210.12757269 Ha       -5717.86217461 eV
  | XC energy correction          :         -46.87466318 Ha       -1275.52448320 eV
  | XC potential correction       :          59.92320952 Ha        1630.59349470 eV
  | Free-atom electrostatic energy:        -178.57060414 Ha       -4859.15336968 eV
  | Hartree energy correction     :          -7.63049599 Ha        -207.63636020 eV
  | van der Waals energy corr.    :           0.00000000 Ha           0.00000000 eV
  | Entropy correction            :          -0.00010367 Ha          -0.00282095 eV
  | ---------------------------
  | Total energy                  :        -383.28012648 Ha      -10429.58289299 eV
  | Total energy, T -> 0          :        -383.28023015 Ha      -10429.58571394 eV  <-- do not rely on this value for anything but (periodic) metals
  | Electronic free energy        :        -383.28033382 Ha      -10429.58853488 eV

  Derived energy quantities:
  | Kinetic energy                :         382.33102027 Ha       10403.75639883 eV
  | Electrostatic energy          :        -718.73648357 Ha      -19557.81480862 eV
  | Energy correction for multipole
  | error in Hartree potential    :          -0.00620137 Ha          -0.16874797 eV
  | Sum of eigenvalues per atom                           :        -357.36638591 eV
  | Total energy (T->0) per atom                          :        -651.84910712 eV  <-- do not rely on this value for anything but (periodic) metals
  | Electronic free energy per atom                       :        -651.84928343 eV

  Self-consistency convergence accuracy:
  | Change of charge density      : 0.2827E-01
  | Change of sum of eigenvalues  : 0.1546E+01 eV
  | Change of total energy        : 0.7936E-02 eV

  End self-consistency iteration #     5       :  max(cpu_time)    wall_clock(cpu1)
  | Time for this iteration                    :        2.101 s           2.100 s
  | Charge density update                      :        0.655 s           0.655 s
  | Density mixing                             :        0.010 s           0.010 s
  | Hartree multipole update                   :        0.005 s           0.005 s
  | Hartree multipole summation                :        0.365 s           0.365 s
  | Integration                                :        1.008 s           1.008 s
  | Solution of K.-S. eqns.                    :        0.057 s           0.057 s
  | Total energy evaluation                    :        0.000 s           0.000 s
------------------------------------------------------------

------------------------------------------------------------
          Begin self-consistency iteration #    6

  Date     :  20150727, Time     :  124309.299
------------------------------------------------------------
  Evaluating new KS density.
  Integration grid: deviation in total charge (<rho> - N_e) =   3.316813E-11
  Pulay mixing of updated and previous charge densities.

  Evaluating partitioned Hartree potential by multipole expansion.
  | Analytical far-field extrapolation by fixed multipoles:
  | Hartree multipole sum: apparent total charge =  -0.757009E-05
  Summing up the Hartree potential.
  Time summed over all CPUs for potential: real work        2.895 s, elapsed        2.911 s
  | RMS charge density error from multipole expansion :   0.178119E-01

  Integrating Hamiltonian matrix: batch-based integration.
  Time summed over all CPUs for integration: real work        7.916 s, elapsed        8.056 s

  Updating Kohn-Sham eigenvalues, eigenvectors, occupation numbers, and Fermi level.
  Solving generalized eigenproblem
  Updating Kohn-Sham eigenvalues and eigenfunctions.
  Solving real generalised eigenvalue problem by standard LAPACK (fast)
  Determining occupation numbers for Kohn-Sham eigenstates.
  | Chemical potential (Fermi level) in eV                 : -.20252949E+01
  | Error in electron count due to remaining E_F inaccuracy: 0.00000000E+00
  | Maximum occupation number of highest empty state:  0.00E+00

  Highest occupied state (VBM) at     -2.02529494 eV
  | Occupation number:      1.00000000

  Lowest unoccupied state (CBM) at    -2.02529494 eV
  | Occupation number:      1.00000000

  Overall HOMO-LUMO gap:      0.00000000 eV.

  Total energy components:
  | Sum of eigenvalues            :        -210.13397307 Ha       -5718.03633772 eV
  | XC energy correction          :         -46.87528682 Ha       -1275.54145325 eV
  | XC potential correction       :          59.92377570 Ha        1630.60890132 eV
  | Free-atom electrostatic energy:        -178.57060414 Ha       -4859.15336968 eV
  | Hartree energy correction     :          -7.62405002 Ha        -207.46095660 eV
  | van der Waals energy corr.    :           0.00000000 Ha           0.00000000 eV
  | Entropy correction            :          -0.00010367 Ha          -0.00282095 eV
  | ---------------------------
  | Total energy                  :        -383.28013835 Ha      -10429.58321593 eV
  | Total energy, T -> 0          :        -383.28024202 Ha      -10429.58603688 eV  <-- do not rely on this value for anything but (periodic) metals
  | Electronic free energy        :        -383.28034569 Ha      -10429.58885783 eV

  Derived energy quantities:
  | Kinetic energy                :         382.31420986 Ha       10403.29896439 eV
  | Electrostatic energy          :        -718.71906139 Ha      -19557.34072707 eV
  | Energy correction for multipole
  | error in Hartree potential    :          -0.00634684 Ha          -0.17270637 eV
  | Sum of eigenvalues per atom                           :        -357.37727111 eV
  | Total energy (T->0) per atom                          :        -651.84912730 eV  <-- do not rely on this value for anything but (periodic) metals
  | Electronic free energy per atom                       :        -651.84930361 eV

  Self-consistency convergence accuracy:
  | Change of charge density      : 0.8071E-02
  | Change of sum of eigenvalues  : -.1742E+00 eV
  | Change of total energy        : -.3229E-03 eV

  End self-consistency iteration #     6       :  max(cpu_time)    wall_clock(cpu1)
  | Time for this iteration                    :        2.102 s           2.102 s
  | Charge density update                      :        0.655 s           0.654 s
  | Density mixing                             :        0.011 s           0.012 s
  | Hartree multipole update                   :        0.005 s           0.005 s
  | Hartree multipole summation                :        0.365 s           0.364 s
  | Integration                                :        1.009 s           1.009 s
  | Solution of K.-S. eqns.                    :        0.057 s           0.057 s
  | Total energy evaluation                    :        0.000 s           0.001 s
------------------------------------------------------------

------------------------------------------------------------
          Begin self-consistency iteration #    7

  Date     :  20150727, Time     :  124311.401
------------------------------------------------------------
  Evaluating new KS density.
  Integration grid: deviation in total charge (<rho> - N_e) =   1.421085E-14
  Pulay mixing of updated and previous charge densities.

  Evaluating partitioned Hartree potential by multipole expansion.
  | Analytical far-field extrapolation by fixed multipoles:
  | Hartree multipole sum: apparent total charge =  -0.757499E-05
  Summing up the Hartree potential.
  Time summed over all CPUs for potential: real work        2.894 s, elapsed        2.909 s
  | RMS charge density error from multipole expansion :   0.179253E-01

  Integrating Hamiltonian matrix: batch-based integration.
  Time summed over all CPUs for integration: real work        7.920 s, elapsed        8.057 s

  Updating Kohn-Sham eigenvalues, eigenvectors, occupation numbers, and Fermi level.
  Solving generalized eigenproblem
  Updating Kohn-Sham eigenvalues and eigenfunctions.
  Solving real generalised eigenvalue problem by standard LAPACK (fast)
  Determining occupation numbers for Kohn-Sham eigenstates.
  | Chemical potential (Fermi level) in eV                 : -.20358426E+01
  | Error in electron count due to remaining E_F inaccuracy: 0.16391368E-08
  | Maximum occupation number of highest empty state:  0.00E+00

  Highest occupied state (VBM) at     -2.03584261 eV
  | Occupation number:      1.00000000

  Lowest unoccupied state (CBM) at    -1.16884737 eV
  | Occupation number:      0.00000000

  Overall HOMO-LUMO gap:      0.86699524 eV.

  Total energy components:
  | Sum of eigenvalues            :        -210.16451144 Ha       -5718.86732916 eV
  | XC energy correction          :         -46.87291831 Ha       -1275.47700280 eV
  | XC potential correction       :          59.92039476 Ha        1630.51690111 eV
  | Free-atom electrostatic energy:        -178.57060414 Ha       -4859.15336968 eV
  | Hartree energy correction     :          -7.59249500 Ha        -206.60230078 eV
  | van der Waals energy corr.    :           0.00000000 Ha           0.00000000 eV
  | Entropy correction            :          -0.00010367 Ha          -0.00282095 eV
  | ---------------------------
  | Total energy                  :        -383.28013414 Ha      -10429.58310131 eV
  | Total energy, T -> 0          :        -383.28023781 Ha      -10429.58592226 eV  <-- do not rely on this value for anything but (periodic) metals
  | Electronic free energy        :        -383.28034148 Ha      -10429.58874321 eV

  Derived energy quantities:
  | Kinetic energy                :         382.34338456 Ha       10404.09284837 eV
  | Electrostatic energy          :        -718.75060039 Ha      -19558.19894688 eV
  | Energy correction for multipole
  | error in Hartree potential    :          -0.00652616 Ha          -0.17758592 eV
  | Sum of eigenvalues per atom                           :        -357.42920807 eV
  | Total energy (T->0) per atom                          :        -651.84912014 eV  <-- do not rely on this value for anything but (periodic) metals
  | Electronic free energy per atom                       :        -651.84929645 eV

  Self-consistency convergence accuracy:
  | Change of charge density      : 0.6292E-02
  | Change of sum of eigenvalues  : -.8310E+00 eV
  | Change of total energy        : 0.1146E-03 eV

  End self-consistency iteration #     7       :  max(cpu_time)    wall_clock(cpu1)
  | Time for this iteration                    :        2.104 s           2.103 s
  | Charge density update                      :        0.655 s           0.654 s
  | Density mixing                             :        0.013 s           0.013 s
  | Hartree multipole update                   :        0.005 s           0.005 s
  | Hartree multipole summation                :        0.365 s           0.365 s
  | Integration                                :        1.009 s           1.009 s
  | Solution of K.-S. eqns.                    :        0.057 s           0.057 s
  | Total energy evaluation                    :        0.000 s           0.000 s
------------------------------------------------------------

------------------------------------------------------------
          Begin self-consistency iteration #    8

  Date     :  20150727, Time     :  124313.504
------------------------------------------------------------
  Evaluating new KS density.
  Integration grid: deviation in total charge (<rho> - N_e) =   1.639123E-09
  Pulay mixing of updated and previous charge densities.

  Evaluating partitioned Hartree potential by multipole expansion.
  | Analytical far-field extrapolation by fixed multipoles:
  | Hartree multipole sum: apparent total charge =  -0.753089E-05
  Summing up the Hartree potential.
  Time summed over all CPUs for potential: real work        2.895 s, elapsed        2.910 s
  | RMS charge density error from multipole expansion :   0.179490E-01

  Integrating Hamiltonian matrix: batch-based integration.
  Time summed over all CPUs for integration: real work        7.916 s, elapsed        8.063 s

  Updating Kohn-Sham eigenvalues, eigenvectors, occupation numbers, and Fermi level.
  Solving generalized eigenproblem
  Updating Kohn-Sham eigenvalues and eigenfunctions.
  Solving real generalised eigenvalue problem by standard LAPACK (fast)
  Determining occupation numbers for Kohn-Sham eigenstates.
  | Chemical potential (Fermi level) in eV                 : -.20417933E+01
  | Error in electron count due to remaining E_F inaccuracy: 0.00000000E+00
  | Maximum occupation number of highest empty state:  0.00E+00

  Highest occupied state (VBM) at     -2.04179326 eV
  | Occupation number:      1.00000000

  Lowest unoccupied state (CBM) at    -2.04179326 eV
  | Occupation number:      1.00000000

  Overall HOMO-LUMO gap:      0.00000000 eV.

  Total energy components:
  | Sum of eigenvalues            :        -210.20123158 Ha       -5719.86653499 eV
  | XC energy correction          :         -46.86966902 Ha       -1275.38858497 eV
  | XC potential correction       :          59.91603528 Ha        1630.39827379 eV
  | Free-atom electrostatic energy:        -178.57060414 Ha       -4859.15336968 eV
  | Hartree energy correction     :          -7.55465849 Ha        -205.57271701 eV
  | van der Waals energy corr.    :           0.00000000 Ha           0.00000000 eV
  | Entropy correction            :          -0.00010367 Ha          -0.00282095 eV
  | ---------------------------
  | Total energy                  :        -383.28012795 Ha      -10429.58293285 eV
  | Total energy, T -> 0          :        -383.28023162 Ha      -10429.58575380 eV  <-- do not rely on this value for anything but (periodic) metals
  | Electronic free energy        :        -383.28033529 Ha      -10429.58857475 eV

  Derived energy quantities:
  | Kinetic energy                :         382.35810742 Ha       10404.49347774 eV
  | Electrostatic energy          :        -718.76856636 Ha      -19558.68782562 eV
  | Energy correction for multipole
  | error in Hartree potential    :          -0.00662248 Ha          -0.18020674 eV
  | Sum of eigenvalues per atom                           :        -357.49165844 eV
  | Total energy (T->0) per atom                          :        -651.84910961 eV  <-- do not rely on this value for anything but (periodic) metals
  | Electronic free energy per atom                       :        -651.84928592 eV

  Self-consistency convergence accuracy:
  | Change of charge density      : 0.2981E-02
  | Change of sum of eigenvalues  : -.9992E+00 eV
  | Change of total energy        : 0.1685E-03 eV

  End self-consistency iteration #     8       :  max(cpu_time)    wall_clock(cpu1)
  | Time for this iteration                    :        2.107 s           2.107 s
  | Charge density update                      :        0.656 s           0.656 s
  | Density mixing                             :        0.014 s           0.014 s
  | Hartree multipole update                   :        0.005 s           0.005 s
  | Hartree multipole summation                :        0.365 s           0.365 s
  | Integration                                :        1.010 s           1.010 s
  | Solution of K.-S. eqns.                    :        0.057 s           0.056 s
  | Total energy evaluation                    :        0.000 s           0.000 s
------------------------------------------------------------

------------------------------------------------------------
          Begin self-consistency iteration #    9

  Date     :  20150727, Time     :  124315.611
------------------------------------------------------------
  Evaluating new KS density.
  Integration grid: deviation in total charge (<rho> - N_e) =   2.842171E-14
  Pulay mixing of updated and previous charge densities.

  Evaluating partitioned Hartree potential by multipole expansion.
  | Analytical far-field extrapolation by fixed multipoles:
  | Hartree multipole sum: apparent total charge =  -0.752151E-05
  Summing up the Hartree potential.
  Time summed over all CPUs for potential: real work        2.894 s, elapsed        2.908 s
  | RMS charge density error from multipole expansion :   0.179337E-01

  Integrating Hamiltonian matrix: batch-based integration.
  Time summed over all CPUs for integration: real work        7.925 s, elapsed        8.082 s

  Updating Kohn-Sham eigenvalues, eigenvectors, occupation numbers, and Fermi level.
  Solving generalized eigenproblem
  Updating Kohn-Sham eigenvalues and eigenfunctions.
  Solving real generalised eigenvalue problem by standard LAPACK (fast)
  Determining occupation numbers for Kohn-Sham eigenstates.
  | Chemical potential (Fermi level) in eV                 : -.20420136E+01
  | Error in electron count due to remaining E_F inaccuracy: -.42632564E-13
  | Maximum occupation number of highest empty state:  0.00E+00

  Highest occupied state (VBM) at     -6.28109978 eV
  | Occupation number:      2.00000000

  Lowest unoccupied state (CBM) at    -2.04201364 eV
  | Occupation number:      1.00000000

  Overall HOMO-LUMO gap:      4.23908614 eV.

  Total energy components:
  | Sum of eigenvalues            :        -210.20247137 Ha       -5719.90027134 eV
  | XC energy correction          :         -46.86952365 Ha       -1275.38462942 eV
  | XC potential correction       :          59.91586005 Ha        1630.39350540 eV
  | Free-atom electrostatic energy:        -178.57060414 Ha       -4859.15336968 eV
  | Hartree energy correction     :          -7.55338776 Ha        -205.53813853 eV
[...]
   Van der Waals               : 0.296979E-02 0.203000E-02 0.364606E-02
   ----------------------------------------------------------------
   Total forces(   7)            : -.327349E+00 0.332933E+00 -.263731E+01
  atom #    8
   Hellmann-Feynman + Multipole  : -.433119E+01 0.231730E+01 -.947687E+01
   Pulay + GGA                   : 0.564453E+01 -.250803E+01 0.102402E+02
   Van der Waals               : 0.185883E-03 0.615216E-02 -.113383E-02
   ----------------------------------------------------------------
   Total forces(   8)            : 0.131353E+01 -.184569E+00 0.762201E+00
  atom #    9
   Hellmann-Feynman + Multipole  : -.116772E+00 -.296353E+00 -.602308E+00
   Pulay + GGA                   : 0.444111E-02 0.103609E+00 0.119297E+00
   Van der Waals               : 0.110559E-02 0.570652E-02 0.259797E-04
   ----------------------------------------------------------------
   Total forces(   9)            : -.111226E+00 -.187037E+00 -.482986E+00
  atom #   10
   Hellmann-Feynman + Multipole  : -.119915E+01 0.608798E+00 -.270338E+00
   Pulay + GGA                   : 0.123852E+00 -.747728E-01 0.126239E-01
   Van der Waals               : -.335770E-03 0.222795E-02 0.200652E-03
   ----------------------------------------------------------------
   Total forces(  10)            : -.107563E+01 0.536253E+00 -.257514E+00
  atom #   11
   Hellmann-Feynman + Multipole  : -.105571E+02 -.286104E+01 0.833541E+00
   Pulay + GGA                   : 0.111159E+02 0.414219E+01 -.161699E+01
   Van der Waals               : 0.450523E-02 -.595281E-02 0.179715E-03
   ----------------------------------------------------------------
   Total forces(  11)            : 0.563264E+00 0.127520E+01 -.783271E+00
  atom #   12
   Hellmann-Feynman + Multipole  : 0.585812E-01 -.230208E+00 0.134184E+00
   Pulay + GGA                   : 0.131873E+00 -.706613E-01 0.350033E-01
   Van der Waals               : 0.238885E-02 -.314213E-02 -.147719E-02
   ----------------------------------------------------------------
   Total forces(  12)            : 0.192843E+00 -.304011E+00 0.167710E+00
  atom #   13
   Hellmann-Feynman + Multipole  : -.603421E+00 -.105570E+01 0.486717E+00
   Pulay + GGA                   : 0.452883E-01 0.109499E+00 -.724408E-01
   Van der Waals               : -.705157E-03 -.498880E-02 0.366634E-03
   ----------------------------------------------------------------
   Total forces(  13)            : -.558838E+00 -.951189E+00 0.414643E+00
  atom #   14
   Hellmann-Feynman + Multipole  : 0.137889E+01 -.153077E+02 0.180076E+01
   Pulay + GGA                   : -.397443E+00 0.154096E+02 -.318095E+01
   Van der Waals               : -.143747E-02 -.438024E-02 -.310563E-02
   ----------------------------------------------------------------
   Total forces(  14)            : 0.980011E+00 0.975360E-01 -.138330E+01
  atom #   15
   Hellmann-Feynman + Multipole  : -.266443E+00 0.473739E+00 0.255563E+00
   Pulay + GGA                   : -.708657E-01 0.923407E-01 0.827514E-01
   Van der Waals               : 0.342538E-02 -.897451E-03 -.464090E-02
   ----------------------------------------------------------------
   Total forces(  15)            : -.333883E+00 0.565182E+00 0.333673E+00
  atom #   16
   Hellmann-Feynman + Multipole  : -.817579E+00 -.789294E+00 0.130210E+01
   Pulay + GGA                   : 0.331899E-01 0.636613E-01 -.697460E-01
   Van der Waals               : 0.590456E-04 -.309589E-02 -.622085E-03
   ----------------------------------------------------------------
   Total forces(  16)            : -.784330E+00 -.728729E+00 0.123174E+01
  Timings for vdw_correction_hirshfeld (Tkatchenko-Scheffler 2009):
  | CPU time:        5.641 s, Wall clock time:        5.642 s.
  Removing unitary transformations (pure translations, rotations) from forces on atoms.
  Atomic forces before filtering:
  | Net force on center of mass :  0.509625E-02 0.360636E-02 -.908881E-02 eV/A
  | Net torque on center of mass:  -.118135E-01 0.193111E-01 -.167869E-01 eV
  Atomic forces after filtering:
  | Net force on center of mass :  0.178406E-15 -.178406E-15 0.178406E-15 eV/A
  | Net torque on center of mass:  0.000000E+00 0.188817E-15 -.151054E-14 eV
 
  Energy and forces in a compact form:
  | Total energy uncorrected      :         -0.104296680327582E+05 eV
  | Total energy corrected        :         -0.104296708537061E+05 eV  <-- do not rely on this value for anything but (periodic) metals
  | Electronic free energy        :         -0.104296736746540E+05 eV
  Total atomic forces (unitary forces cleaned) [eV/Ang]:
  |   1         -0.153648140947474E+01          0.546852560940934E+00          0.230806726296641E+00
  |   2          0.548674679097041E-01         -0.434291670741149E+00          0.159348438449761E+00
  |   3          0.916399478711292E+00          0.100247151909623E-01          0.530125689202386E-01
  |   4          0.224416327267370E+00          0.704943441730847E-01         -0.597210079777575E+00
  |   5          0.413822103712265E+00         -0.915011007269033E+00          0.257579753200929E+01
  |   6          0.740077255382300E-01          0.273304769599955E+00          0.204370737597307E+00
  |   7         -0.326867273429315E+00          0.333086448302280E+00         -0.263725179861127E+01
  |   8          0.131356106818665E+01         -0.184404290950990E+00          0.763245357704516E+00
  |   9         -0.111540977548259E+00         -0.187051583553968E+00         -0.481762464309908E+00
  |  10         -0.107557587114343E+01          0.536480004423886E+00         -0.256320161868525E+00
  |  11          0.562701246055755E+00          0.127494360295953E+01         -0.782270589543580E+00
  |  12          0.192205975156448E+00         -0.304248885203829E+00          0.168917145728321E+00
  |  13         -0.559348220772699E+00         -0.951304175831022E+00          0.415966097145545E+00
  |  14          0.978697520765647E+00          0.965572383513883E-01         -0.138298183105369E+01
  |  15         -0.335441827445139E+00          0.564037376210163E+00          0.333995911022862E+00
  |  16         -0.785423333489773E+00         -0.729469446602192E+00          0.123233641029007E+01
 
  ------------------------------------ 
  Start decomposition of the XC Energy 
  ------------------------------------ 
  Hartree-Fock part   :          0.000000000 Ha              0.000000000 eV
  ------------------------------------ 
  X Energy            :        -45.209158003 Ha          -1230.203781336 eV
  C Energy GGA        :         -1.660810351 Ha            -45.192949029 eV
  Total XC Energy     :        -46.869968353 Ha          -1275.396730366 eV
  LDA X and C from self-consistent density 
  X Energy LDA        :        -40.757057497 Ha          -1109.055962637 eV
  C Energy LDA        :         -3.339326938 Ha            -90.867709275 eV
  ------------------------------------ 
  End decomposition of the XC Energy 
  ------------------------------------ 
  Performing Hirshfeld analysis of fragment charges and moments.
  ----------------------------------------------------------------------
  | Atom     1: O
  |   Hirshfeld charge        :     -0.13023637
  |   Free atom volume        :     23.95238533
  |   Hirshfeld volume        :     21.52471333
  |   Hirshfeld dipole vector :      0.00323293       0.03117187       0.01254148
  |   Hirshfeld dipole moment :      0.03375538
  |   Hirshfeld second moments:      0.07944767      -0.00781342      -0.01311206
  |                                 -0.00781342       0.04193871      -0.02586375
  |                                 -0.01311206      -0.02586375       0.07281674
  ----------------------------------------------------------------------
  | Atom     2: H
  |   Hirshfeld charge        :      0.11971787
  |   Free atom volume        :     10.44207651
  |   Hirshfeld volume        :      9.02165644
  |   Hirshfeld dipole vector :     -0.00603932       0.01205181      -0.00700001
  |   Hirshfeld dipole moment :      0.01518946
  |   Hirshfeld second moments:      0.05891500       0.01971893      -0.00593702
  |                                  0.01971893       0.03522301       0.01352432
  |                                 -0.00593702       0.01352432       0.07284363
  ----------------------------------------------------------------------
  | Atom     3: H
  |   Hirshfeld charge        :      0.09613006
  |   Free atom volume        :     10.44207651
  |   Hirshfeld volume        :     10.03927432
  |   Hirshfeld dipole vector :      0.01057883       0.00650436      -0.00647148
  |   Hirshfeld dipole moment :      0.01400352
  |   Hirshfeld second moments:      0.01883429      -0.01649484      -0.00393178
  |                                 -0.01649484       0.04802462       0.00209732
  |                                 -0.00393178       0.00209732       0.04065418
  ----------------------------------------------------------------------
  | Atom     4: H
  |   Hirshfeld charge        :      0.13448553
  |   Free atom volume        :     10.44207651
  |   Hirshfeld volume        :     11.07143294
  |   Hirshfeld dipole vector :     -0.03153013      -0.00290744       0.03503871
  |   Hirshfeld dipole moment :      0.04722619
  |   Hirshfeld second moments:      0.04866981      -0.00400210      -0.00649391
  |                                 -0.00400210       0.04285061      -0.00441263
  |                                 -0.00649391      -0.00441263      -0.00289375
  ----------------------------------------------------------------------
  | Atom     5: O
  |   Hirshfeld charge        :     -0.20671297
  |   Free atom volume        :     23.95238533
  |   Hirshfeld volume        :     21.37413397
  |   Hirshfeld dipole vector :      0.02662895       0.00457595      -0.01467916
  |   Hirshfeld dipole moment :      0.03074927
  |   Hirshfeld second moments:      0.01654517      -0.00155093       0.02921783
  |                                 -0.00155093       0.06888162       0.00472048
  |                                  0.02921783       0.00472048       0.07924885
  ----------------------------------------------------------------------
  | Atom     6: H
  |   Hirshfeld charge        :      0.10670990
  |   Free atom volume        :     10.44207651
  |   Hirshfeld volume        :      9.08836597
  |   Hirshfeld dipole vector :      0.01263361       0.03283879       0.01348657
  |   Hirshfeld dipole moment :      0.03768132
  |   Hirshfeld second moments:      0.04343329      -0.02044528       0.00279388
  |                                 -0.02044528       0.04906166      -0.01500630
  |                                  0.00279388      -0.01500630       0.06949040
  ----------------------------------------------------------------------
  | Atom     7: H
  |   Hirshfeld charge        :      0.13682037
  |   Free atom volume        :     10.44207651
  |   Hirshfeld volume        :      9.06389348
  |   Hirshfeld dipole vector :     -0.01618048       0.00841058      -0.08462262
  |   Hirshfeld dipole moment :      0.08656520
  |   Hirshfeld second moments:      0.06085551      -0.00072280       0.00841826
  |                                 -0.00072280       0.08446134       0.00714377
  |                                  0.00841826       0.00714377       0.06237639
  ----------------------------------------------------------------------
  | Atom     8: O
  |   Hirshfeld charge        :     -0.23953956
  |   Free atom volume        :     23.95238533
  |   Hirshfeld volume        :     23.73177305
  |   Hirshfeld dipole vector :     -0.01176618      -0.03299566       0.02882910
  |   Hirshfeld dipole moment :      0.04536821
  |   Hirshfeld second moments:      0.03573120      -0.02054512       0.00976234
  |                                 -0.02054512      -0.00097948       0.04558278
  |                                  0.00976234       0.04558278      -0.03727319
  ----------------------------------------------------------------------
  | Atom     9: H
  |   Hirshfeld charge        :      0.04704236
  |   Free atom volume        :     10.44207651
  |   Hirshfeld volume        :     13.73832298
  |   Hirshfeld dipole vector :     -0.01098115       0.00570971       0.00705646
  |   Hirshfeld dipole moment :      0.01424710
  |   Hirshfeld second moments:      0.00559073      -0.02957633       0.00583923
  |                                 -0.02957633      -0.02975367       0.00703387
  |                                  0.00583923       0.00703387      -0.08222766
  ----------------------------------------------------------------------
  | Atom    10: H
  |   Hirshfeld charge        :      0.09495932
  |   Free atom volume        :     10.44207651
  |   Hirshfeld volume        :     12.39840100
  |   Hirshfeld dipole vector :      0.04557444      -0.04117234      -0.00620804
  |   Hirshfeld dipole moment :      0.06173111
  |   Hirshfeld second moments:      0.01488399      -0.00334793      -0.00132757
  |                                 -0.00334793       0.00371774       0.02554891
  |                                 -0.00132757       0.02554891      -0.00934759
  ----------------------------------------------------------------------
  | Atom    11: O
  |   Hirshfeld charge        :     -0.20677669
  |   Free atom volume        :     23.95238533
  |   Hirshfeld volume        :     21.81777826
  |   Hirshfeld dipole vector :     -0.01007075      -0.00577861       0.01009172
  |   Hirshfeld dipole moment :      0.01538360
  |   Hirshfeld second moments:      0.03958815       0.00320877       0.00751300
  |                                  0.00320877       0.06086914      -0.01982899
  |                                  0.00751300      -0.01982899       0.03127056
  ----------------------------------------------------------------------
  | Atom    12: H
  |   Hirshfeld charge        :      0.07743302
  |   Free atom volume        :     10.44207651
  |   Hirshfeld volume        :     11.45760436
  |   Hirshfeld dipole vector :      0.01123559      -0.02015071       0.01712020
  |   Hirshfeld dipole moment :      0.02872961
  |   Hirshfeld second moments:     -0.01394067       0.00363257      -0.00987323
  |                                  0.00363257       0.04046720       0.00688912
  |                                 -0.00987323       0.00688912       0.00534561
  ----------------------------------------------------------------------
  | Atom    13: H
  |   Hirshfeld charge        :      0.10878530
  |   Free atom volume        :     10.44207651
  |   Hirshfeld volume        :     10.74299393
  |   Hirshfeld dipole vector :      0.00337376       0.05985621      -0.02332174
  |   Hirshfeld dipole moment :      0.06432769
  |   Hirshfeld second moments:      0.02984435      -0.00427014       0.00731410
  |                                 -0.00427014       0.03749985      -0.00381663
  |                                  0.00731410      -0.00381663       0.03146884
  ----------------------------------------------------------------------
  | Atom    14: O
  |   Hirshfeld charge        :     -0.33751042
  |   Free atom volume        :     23.95238533
  |   Hirshfeld volume        :     23.78495016
  |   Hirshfeld dipole vector :     -0.01038693       0.07359716      -0.01131655
  |   Hirshfeld dipole moment :      0.07518307
  |   Hirshfeld second moments:     -0.04394830      -0.01224670      -0.06233291
  |                                 -0.01224670      -0.04077500       0.01184814
  |                                 -0.06233291       0.01184814       0.00142825
  ----------------------------------------------------------------------
  | Atom    15: H
  |   Hirshfeld charge        :      0.11952990
  |   Free atom volume        :     10.44207651
  |   Hirshfeld volume        :      7.55457258
  |   Hirshfeld dipole vector :     -0.06308819       0.08643642       0.06395134
  |   Hirshfeld dipole moment :      0.12466414
  |   Hirshfeld second moments:      0.08272736       0.00145211      -0.01850142
  |                                  0.00145211       0.08319771      -0.00491237
  |                                 -0.01850142      -0.00491237       0.10164426
  ----------------------------------------------------------------------
  | Atom    16: H
  |   Hirshfeld charge        :      0.07915503
  |   Free atom volume        :     10.44207651
  |   Hirshfeld volume        :      9.34409496
  |   Hirshfeld dipole vector :      0.01406859       0.04296489      -0.04294523
  |   Hirshfeld dipole moment :      0.06235543
  |   Hirshfeld second moments:      0.03841686      -0.01463724       0.00201710
  |                                 -0.01463724       0.05718201       0.02042219
  |                                  0.00201710       0.02042219       0.03520724
  ----------------------------------------------------------------------


------------------------------------------------------------------------------
  Final output of selected total energy values:

  The following output summarizes some interesting total energy values
  at the end of a run (AFTER all relaxation, molecular dynamics, etc.).

  | Total energy of the DFT / Hartree-Fock s.c.f. calculation      :         -10429.668032758 eV
  | Final zero-broadening corrected energy (caution - metals only) :         -10429.670853706 eV
  | For reference only, the value of 1 Hartree used in FHI-aims is :             27.211384500 eV

  Before relying on these values, please be sure to understand exactly which
  total energy value is referred to by a given number. Different objects may
  all carry the same name 'total energy'. Definitions:

  Total energy of the DFT / Hartree-Fock s.c.f. calculation:
  | Note that this energy does not include ANY quantities calculated after the
  | s.c.f. cycle, in particular not ANY RPA, MP2, etc. many-body perturbation terms.

  Final zero-broadening corrected energy:
  | For metallic systems only, a broadening of the occupation numbers at the Fermi
  | level can be extrapolated back to zero broadening by an electron-gas inspired
  | formula. For all systems that are not real metals, this value can be
  | meaningless and should be avoided.

------------------------------------------------------------------------------

------------------------------------------------------------
          Leaving FHI-aims.
          Date     :  20150727, Time     :  124342.431

          Computational steps:
          | Number of self-consistency cycles          :           17

          Detailed time accounting                     :  max(cpu_time)    wall_clock(cpu1)
          | Total time                                 :       46.362 s          46.399 s
          | Preparation time                           :        0.171 s           0.512 s
          | Grid partitioning                          :        0.168 s           0.168 s
          | Preloading free-atom quantities on grid    :        0.013 s           0.013 s
          | Free-atom superposition energy             :        0.072 s           0.073 s
          | Total time for integrations                :       18.736 s          18.735 s
          | Total time for solution of K.-S. equations :        1.178 s           1.181 s
          | Total time for density & force components  :       17.015 s          17.014 s
          | Total time for mixing                      :        0.236 s           0.237 s
          | Total time for Hartree multipole update    :        0.085 s           0.086 s
          | Total time for Hartree multipole sum       :        8.014 s           8.013 s
          | Total time for total energy evaluation     :        0.004 s           0.005 s
          | Total time for scaled ZORA corrections     :        0.000 s           0.000 s
          | Total time for TS (2009) vdW correction    :        0.058 s           0.058 s

          Have a nice day.
------------------------------------------------------------
