  MPI-parallelism will be employed.
------------------------------------------------------------
          Invoking FHI-aims ...
          Version 081213
          Compiled on 2013/08/29 at 17:41:06 on host generoso.

          When using FHI-aims, please cite the following reference:

          Volker Blum, Ralf Gehrke, Felix Hanke, Paula Havu,
          Ville Havu, Xinguo Ren, Karsten Reuter, and Matthias Scheffler,
          'Ab Initio Molecular Simulations with Numeric Atom-Centered Orbitals: FHI-aims',
          Computer Physics Communications 180, 2175-2196 (2009)

          For any questions about FHI-aims, please visit the aimsclub website
          with its forums and wiki. Contributions to both the forums and the
          wiki are warmly encouraged - they are for you, and everyone is welcome there.

------------------------------------------------------------

  Date     :  20150727, Time     :  125559.531
  Time zero on CPU 1             :   0.429930000000000E-01  s.
  Internal wall clock time zero  :           207233759.531  s.

  Using        8 parallel tasks.
  Task        0 on host gen59 reporting.
  Task        1 on host gen59 reporting.
  Task        2 on host gen59 reporting.
  Task        3 on host gen59 reporting.
  Task        4 on host gen59 reporting.
  Task        5 on host gen59 reporting.
  Task        6 on host gen59 reporting.
  Task        7 on host gen59 reporting.

  Performing system and environment tests:
  | Environment variable OMP_NUM_THREADS correctly set to 1.
  | Checking for scalapack...
  | No scalapack compiled in.

  Obtaining array dimensions for all initial allocations:
  
  -----------------------------------------------------------------------
  Parsing control.in (first pass over file, find array dimensions only).
  The contents of control.in will be repeated verbatim below
  unless switched off by setting 'verbatim_writeout .false.' .
  in the first line of control.in .
  -----------------------------------------------------------------------
  
  #########################################################################################
  #
  #  Volker Blum, FHI 2008 : Test run input file control.in
  #
  #########################################################################################
  #
  #  Physical model
  #
    xc                 rpbe
    spin               none
    relativistic       atomic_zora scalar
    charge             0.
   vdw_correction_hirshfeld
  #
  #  SCF convergence
  #
    occupation_type    gaussian 0.01
    mixer              pulay
      n_max_pulay        10
      charge_mix_param   0.1
    sc_accuracy_rho    5E-5
    sc_accuracy_eev    5E-3
    sc_accuracy_etot   5E-6
    sc_iter_limit      3000
  #
  #  Eigenvalue solver
  #
    KS_method          lapack
      empty_states       8
      basis_threshold    0.e-5
  #
  #  Efficiency
  #
  #   all previous settings are now default, except stratmann still
  #   undecided. Continue to handle stratmann with care, if at all.
  #
  #  partition_type stratmann
    partition_type rho_r2
  #  hartree_partition_type stratmann
  #
  #  Oprions for large clusters (100's of atoms: memory saving / better scaling)
  #
  # for periodic systems:
  #
    density_update_method orbital
    packed_matrix_format none
  #  k_grid 6 6 6
  #  output k_eigenvalue 1
  #  distributed_spline_storage .true.
  #
  #  Relaxation
  #
  #  relax_geometry   bfgs 5.e-3
    sc_accuracy_forces 5.E-4
    final_forces_cleaned .true.
  #
  #  Output options
  #
  #  output mulliken
    output Hirshfeld
  #  output dipole
  
  #harmonic_length_scale 0.001
  
  ################################################################################
  #
  #  FHI-aims code project
  #  VB, Fritz-Haber Institut, 2007
  #
  #  Suggested "safe" defaults for H atom (to be pasted into control.in file)
  #  Basis constructed for a non-relativistic H2 molecule using the
  #  PW-LDA functional.
  #
  ################################################################################
    species        H
  #     global species definitions
      nucleus             1
      cut_pot             4.0  2.0  1.0
      cut_free_atom       finite 8.0
      logarithmic         0.00010000 100.00  1.0123
      basis_dep_cutoff    1d-4  # 1d-4 is safe default - please check 5d-4 if you wish!
      radial_base         24 7.0
      radial_multiplier   2
      angular_grids       specified
        division   0.2783  110
        division   0.3822  194
        division   0.5626  302
  #      division   0.5922  434
  #      division   0.6227  590
  #      division   0.7206  770
        outer_grid  302
      l_hartree           4
  ################################################################################
  #
  #  Definition of "minimal" basis
  #
  ################################################################################
  #     valence basis states
      valence      1  s   1.
  #     ion occupancy
      ion_occ      1  s   0.5
  ################################################################################
  #
  #  Suggested additional basis functions. For production calculations,
  #  uncomment them one after another (the most important basis functions are
  #  listed first).
  #
  ################################################################################
  #  "First tier" - improvements: -1014.90 meV to -62.69 meV
       hydro 2 s 2.1
       hydro 2 p 3.5
  #  "Second tier" - improvements: -12.89 meV to -1.83 meV
       hydro 1 s 0.85
       hydro 2 p 3.7
       hydro 2 s 1.2
       hydro 3 d 7
  #  "Third tier" - improvements: -0.25 meV to -0.12 meV
  #     hydro 4 f 11.2
  #     hydro 3 p 4.8
  #     hydro 4 d 9
  #     hydro 3 s 3.2
  
  ################################################################################
  #
  #  FHI-aims code project
  #  VB, Fritz-Haber Institut, 2007
  #
  #  Suggested "safe" defaults for O atom (to be pasted into control.in file)
  #  All values have been tested for a non-relativistic, non-spinpolarized O2
  #  molecule using the PW-LDA functional. Validity for PBE is expected.
  #
  #  Constructed for dimers: 1.0 A, 1.208 A, 1.5 A, 2.0 A, 3.0 A
  #
  ################################################################################
    species        O
  #     global species definitions
      nucleus             8
      mass                15.9994
      l_hartree           4
      cut_pot             4.0  2.0  1.0
      cut_free_atom       finite 8.0
      basis_dep_cutoff    1d-4  # 1d-4 is safe default - please check 5d-4 if you wish!
      logarithmic         0.00010000 100.00  1.0123
      radial_base         36 7.0
      radial_multiplier   2
       angular_grids specified
        division   0.4087  110
        division   0.5181  194
        division   0.6184  302
  #      division   0.7315  434
  #      division   0.7934  590
  #      division   0.9656  770
  #      division   1.4041  974
  #      outer_grid 974
        outer_grid 302
  ################################################################################
  #
  #  Definition of "minimal" basis
  #
  ################################################################################
  #     valence basis states
      valence      2  s   2.
      valence      2  p   4.
  #     ion occupancy
      ion_occ      2  s   1.
      ion_occ      2  p   3.
  ################################################################################
  #
  #  Suggested additional basis functions. For production calculations,
  #  uncomment them one after another (the most important basis functions are
  #  listed first).
  #
  ################################################################################
  #  "First tier" - improvements: -699.05 meV to -159.38 meV
       hydro 2 p 1.8
       hydro 3 d 7.6
       hydro 3 s 6.4
  #  "Second tier" - improvements: -49.91 meV to -5.39 meV
       hydro 4 f 11.6
       hydro 3 p 6.2
       hydro 3 d 5.6
       hydro 5 g 17.6
       hydro 1 s 0.75
  #  "Third tier" - improvements: -2.83 meV to -0.50 meV
  #     ionic 2 p auto
  #     hydro 4 f 10.8
  #     hydro 4 d 4.7
  #     hydro 2 s 6.8
  #  "Fourth tier" - improvements: -0.40 meV to -0.12 meV
  #     hydro 3 p 5
  #     hydro 3 s 3.3
  #     hydro 5 g 15.6
  #     hydro 4 f 17.6
  #     hydro 4 d 14
  # Further basis functions - -0.08 meV and below
  #     hydro 3 s 2.1
  #     hydro 4 d 11.6
  #     hydro 3 p 16
  #     hydro 2 s 17.2
  
  
  -----------------------------------------------------------------------
  Completed first pass over input file control.in .
  -----------------------------------------------------------------------
  
  
  -----------------------------------------------------------------------
  Parsing geometry.in (first pass over file, find array dimensions only).
  The contents of geometry.in will be repeated verbatim below
  unless switched off by setting 'verbatim_writeout .false.' .
  in the first line of geometry.in .
  -----------------------------------------------------------------------
  
  atom      -4.053030000      0.065001000     -1.525160000  O
  atom      -4.566710000      0.974813000     -1.912820000  H
  atom      -3.067820000      0.330172000     -1.477310000  H
  atom      -4.370360000     -0.049164000     -0.572274000  H
  atom      -1.645860000      0.870179000     -1.502250000  O
  atom      -1.568890000      1.501730000     -0.721051000  H
  atom      -0.824432000      0.282220000     -1.377720000  H
  atom      -3.818880000      2.024990000      2.187990000  O
  atom      -3.690880000      1.961360000      3.202150000  H
  atom      -4.546490000      2.751300000      2.045370000  H
  atom      -4.066610000      4.258280000     -0.900064000  O
  atom      -3.224110000      3.876870000     -0.569443000  H
  atom      -3.737450000      5.116530000     -1.322720000  H
  atom      -5.628340000      3.730740000      1.385610000  O
  atom      -6.090650000      4.418470000      1.860350000  H
  atom      -5.158540000      4.200260000      0.615875000  H
  
  -----------------------------------------------------------------------
  Completed first pass over input file geometry.in .
  -----------------------------------------------------------------------
  
 
  Basic array size parameters: 
  | Number of species                 :        2
  | Number of atoms                   :       16
  | Max. basis fn. angular momentum   :        4
  | Max. atomic/ionic basis occupied n:        2
  | Max. number of basis fn. types    :        2
  | Max. radial fns per species/type  :        8
  | Max. logarithmic grid size        :     1301
  | Max. radial integration grid size :       73
  | Max. angular integration grid size:      302
  | Max. angular grid division number :        8
  | Radial grid for Hartree potential :     1301
  | Number of spin channels           :        1

------------------------------------------------------------
          Reading file control.in.
------------------------------------------------------------
  XC: Using RPBE gradient-corrected functionals.
  Spin treatment: No spin polarisation.
  Scalar relativistic treatment of kinetic energy: on-site free-atom approximation to ZORA.
  Charge =   0.000000E+00: Neutral system requested explicitly.
  Using non-empirical van der Waals correction (Hirshfeld partitioning):
  Occupation type: Gaussian broadening, width =   0.100000E-01 eV.
  Using pulay charge density mixing.
  Pulay mixing - number of memorized iterations:   10
  Charge density mixing - mixing parameter:     0.1000
  Convergence accuracy of self-consistent charge density: 0.5000E-04
  Convergence accuracy of sum of eigenvalues: 0.5000E-02
  Convergence accuracy of total energy: 0.5000E-05
  Maximum number of s.-c. iterations  :  3000
  Kohn-Sham eigenvalues and eigenfunctions calculated by lapack diagonalisation (D&C).
  Number of empty states per atom:        8
  Threshold for basis singularities: 0.0000E+00
  Partition function in integrals calculations: rho / r^2
 Using packed matrix format           0
  Convergence accuracy of forces: 0.5000E-03
  Cleaning forces before final output.
  Hirshfeld charge analysis will be performed.
 
  Reading configuration options for species H                   .
  | Found nuclear charge :   1.0000
  | Found cutoff potl. onset [A], width [A], scale factor :    4.00000    2.00000    1.00000
  | Found cutoff specification for free atom: Cutoff potential begins at    8.00000 A.
  | Found logarithmic grid data [bohr] : 0.1000E-03 0.1000E+03 0.1012E+01
  | Threshold for basis-dependent cutoff potential is   0.100000E-03
  | Found data for basic radial integration grid :    24 points, outermost radius =    7.000 A
  | Found multiplier for basic radial grid :   2
  | Found angular grid specification: user-specified.
  | Specified grid contains     4 separate shells.
  | Check grid settings after all constraints further below.
  | Found l_max for Hartree potential  :   4
  | Found free-atom valence shell :  1 s   1.000
  | No ionic wave fns used. Skipping ion_occ.
  | Found hydrogenic basis function :  2 s   2.100
  | Found hydrogenic basis function :  2 p   3.500
  | Found hydrogenic basis function :  1 s   0.850
  | Found hydrogenic basis function :  2 p   3.700
  | Found hydrogenic basis function :  2 s   1.200
  | Found hydrogenic basis function :  3 d   7.000
  Species H                   : Missing cutoff potential type.
  Defaulting to exp(1/x)/(1-x)^2 type cutoff potential.
  Species H : On-site basis accuracy parameter (for Gram-Schmidt orthonormalisation) not specified.
  Using default value basis_acc =  0.1000000E-03.
  Species H                   : Using default innermost maximum threshold i_radial=  2 for radial functions.
  Species H                   : Basic radial grid will be enhanced according to radial_multiplier =   2, to contain    49 grid points.
 
  Reading configuration options for species O                   .
  | Found nuclear charge :   8.0000
  | Found atomic mass :    15.9994000000000      amu
  | Found l_max for Hartree potential  :   4
  | Found cutoff potl. onset [A], width [A], scale factor :    4.00000    2.00000    1.00000
  | Found cutoff specification for free atom: Cutoff potential begins at    8.00000 A.
  | Threshold for basis-dependent cutoff potential is   0.100000E-03
  | Found logarithmic grid data [bohr] : 0.1000E-03 0.1000E+03 0.1012E+01
  | Found data for basic radial integration grid :    36 points, outermost radius =    7.000 A
  | Found multiplier for basic radial grid :   2
  | Found angular grid specification: user-specified.
  | Specified grid contains     4 separate shells.
  | Check grid settings after all constraints further below.
  | Found free-atom valence shell :  2 s   2.000
  | Found free-atom valence shell :  2 p   4.000
  | No ionic wave fns used. Skipping ion_occ.
  | No ionic wave fns used. Skipping ion_occ.
  | Found hydrogenic basis function :  2 p   1.800
  | Found hydrogenic basis function :  3 d   7.600
  | Found hydrogenic basis function :  3 s   6.400
  | Found hydrogenic basis function :  4 f  11.600
  | Found hydrogenic basis function :  3 p   6.200
  | Found hydrogenic basis function :  3 d   5.600
  | Found hydrogenic basis function :  5 g  17.600
  | Found hydrogenic basis function :  1 s   0.750
  Species O                   : Missing cutoff potential type.
  Defaulting to exp(1/x)/(1-x)^2 type cutoff potential.
  Species O : On-site basis accuracy parameter (for Gram-Schmidt orthonormalisation) not specified.
  Using default value basis_acc =  0.1000000E-03.
  Species O                   : Using default innermost maximum threshold i_radial=  2 for radial functions.
  Species O                   : Basic radial grid will be enhanced according to radial_multiplier =   2, to contain    73 grid points.
 
  Finished reading input file 'control.in'. Consistency checks are next.
 
  Target number of points in a grid batch is not set. Defaulting to  100
  Method for grid partitioning is not set. Defaulting to parallel hash+maxmin partitioning.
  Batch size limit is not set. Defaulting to    200
  By default, will store active basis functions for each batch.
  If in need of memory, prune_basis_once .false. can be used to disable this option.
  communication_type for Hartree potential was not specified.
  Defaulting to calc_hartree .
  Pulay mixer: Number of initial linear mixing iterations not set.
  Defaulting to    0 iterations.
  Work space size for distributed Hartree potential not set.
  Defaulting to   0.200000E+03 MB.
  Algorithm-dependent basis array size parameters:
  | n_max_pulay                         :       10
  Geometry relaxation not requested: no relaxation will be performed.
  Handling of forces: Unphysical translation and rotation will be removed from forces.
  No accuracy limit for integral partition fn. given. Defaulting to 0.1000E-14.
  No threshold value for u(r) in integrations given. Defaulting to 0.1000E-05.
  No accuracy for occupation numbers given. Defaulting to 0.1000E-07.
  No threshold value for occupation numbers given. Defaulting to 0.0000E+00.
  No accuracy for fermi level given. Defaulting to 0.1000E-19.
  Maximum # of iterations to find E_F not set. Defaulting to  200.
  Will not use alltoall communication since running on < 1024 CPUs.
  Partitioning for Hartree potential was not defined. Using partition_type for integrals.
  | Reporting present value of keyword multip_moments_threshold  :       0.10000000E-09
  | This value may affect high angular momentum components of the Hartree potential in periodic systems.
  No q(lm)/r^(l+1) cutoff set for long-range Hartree potential.
  | Using default value of  0.100000E-09 .
  | Verify using the multipole_threshold keyword.
  Defaulting to new monopole extrapolation.
  Density update method: Loop over occupied states selected for charge density update.
------------------------------------------------------------


------------------------------------------------------------
          Reading geometry description geometry.in.
------------------------------------------------------------
  Input structure read successfully.
  The structure contains       16 atoms,  and a total of         51.000 electrons.

  Input geometry:
  | No unit cell requested.
  | Atomic structure:
  |       Atom                x [A]            y [A]            z [A]
  |    1: Species O             -4.053030         0.065001        -1.525160
  |    2: Species H             -4.566710         0.974813        -1.912820
  |    3: Species H             -3.067820         0.330172        -1.477310
  |    4: Species H             -4.370360        -0.049164        -0.572274
  |    5: Species O             -1.645860         0.870179        -1.502250
  |    6: Species H             -1.568890         1.501730        -0.721051
  |    7: Species H             -0.824432         0.282220        -1.377720
  |    8: Species O             -3.818880         2.024990         2.187990
  |    9: Species H             -3.690880         1.961360         3.202150
  |   10: Species H             -4.546490         2.751300         2.045370
  |   11: Species O             -4.066610         4.258280        -0.900064
  |   12: Species H             -3.224110         3.876870        -0.569443
  |   13: Species H             -3.737450         5.116530        -1.322720
  |   14: Species O             -5.628340         3.730740         1.385610
  |   15: Species H             -6.090650         4.418470         1.860350
  |   16: Species H             -5.158540         4.200260         0.615875
  |

  | The smallest distance between any two atoms is         0.95502940 AA.
  |
  | The first atom of this pair is atom number                     14 .
  | The second atom of this pair is atom number                    15 .

  Structure-dependent array size parameters: 
  | Maximum number of distinct radial functions  :       18
  | Maximum number of basis functions            :      360
  | Number of Kohn-Sham states (occupied + empty):       90
------------------------------------------------------------

------------------------------------------------------------
          Preparing all fixed parts of the calculation.
------------------------------------------------------------
  Determining machine precision:
    2.225073858507201E-308
  Setting up grids for atomic and cluster calculations.

  Creating wave function, potential, and density for free atoms.

  Species: H

  List of occupied orbitals and eigenvalues:
    n    l              occ      energy [Ha]    energy [eV]
    1    0           1.0000        -0.241408        -6.5691


  Species: O

  List of occupied orbitals and eigenvalues:
    n    l              occ      energy [Ha]    energy [eV]
    1    0           2.0000       -18.944147      -515.4965
    2    0           2.0000        -0.883529       -24.0421
    2    1           4.0000        -0.330176        -8.9845

  Creating fixed part of basis set: Ionic, confined, hydrogenic.
 
  H                    hydrogenic:
 
  List of hydrogenic basis orbitals: 
    n    l      effective z      eigenvalue [eV]  inner max. [A]     outer max. [A]     outer radius [A]   
    2    0         2.100000       -14.9965           0.193241           1.317192           5.372934
    2    1         3.500000       -41.6672           0.602363           0.602363           4.056010
    1    0         0.850000        -9.8292           0.624864           0.624864           5.372934
    2    1         3.700000       -46.5653           0.573616           0.573616           3.909951
    2    0         1.200000        -4.5995           0.334977           2.228160           5.505921
    3    2         7.000000       -74.0753           0.680692           0.680692           3.769152
 
 
  O                    hydrogenic:
 
  List of hydrogenic basis orbitals: 
    n    l      effective z      eigenvalue [eV]  inner max. [A]     outer max. [A]     outer radius [A]   
    2    1         1.800000       -11.0118           1.178546           1.178546           5.432516
    3    2         7.600000       -87.3182           0.624117           0.624117           3.541422
    3    0         6.400000       -61.9209           0.061166           1.081887           4.306510
    4    3        11.600000      -114.4238           0.731621           0.731621           3.584982
    3    1         6.200000       -58.1113           0.255677           1.030255           4.306510
    3    2         5.600000       -47.4081           0.847222           0.847222           4.413102
    5    4        17.600000      -168.5799           0.749730           0.749730           3.372413
    1    0         0.750000        -7.6499           0.705275           0.705275           5.366508
 

  Adding cutoff potential to free-atom effective potential.
  Creating atomic-like basis functions for current effective potential.

  Species H                   :

  List of atomic basis orbitals and eigenvalues:
    n    l      energy [Ha]    energy [eV]    outer radius [A]
    1    0        -0.241374        -6.5681       5.372934


  Species O                   :

  List of atomic basis orbitals and eigenvalues:
    n    l      energy [Ha]    energy [eV]    outer radius [A]
    1    0       -18.944147      -515.4965       1.415745
    2    0        -0.883529       -24.0421       5.048305
    2    1        -0.330173        -8.9845       5.301302

  Assembling full basis from fixed parts.
  | Species H :   atomic orbital   1 s accepted.
  | Species H :    hydro orbital   2 s accepted.
  | Species H :    hydro orbital   1 s accepted.
  | Species H :    hydro orbital   2 s accepted.
  | Species H :    hydro orbital   2 p accepted.
  | Species H :    hydro orbital   2 p accepted.
  | Species H :    hydro orbital   3 d accepted.
  | Species O :   atomic orbital   1 s accepted.
  | Species O :    hydro orbital   3 s accepted.
  | Species O :   atomic orbital   2 s accepted.
  | Species O :    hydro orbital   1 s accepted.
  | Species O :    hydro orbital   3 p accepted.
  | Species O :   atomic orbital   2 p accepted.
  | Species O :    hydro orbital   2 p accepted.
  | Species O :    hydro orbital   3 d accepted.
  | Species O :    hydro orbital   3 d accepted.
  | Species O :    hydro orbital   4 f accepted.
  | Species O :    hydro orbital   5 g accepted.
 
  Basis size parameters after reduction:
  | Total number of radial functions:       18
  | Total number of basis functions :      360
 
  Testing on-site integration grid accuracy.
  |  Species  Function  <phi|h_atom|phi> (log., in eV)  <phi|h_atom|phi> (rad., in eV)
           1        1                 -6.5683835025                 -6.5684759159
           1        2                 13.3711789951                 13.3708738703
           1        3                 23.6590910787                 23.6532055418
           1        4                 16.2963827186                 16.1870710655 ***
           1        5                 28.7627214838                 28.7627215090
           1        6                 59.5965249172                 59.5965950857
           1        7                 60.2220506392                 60.2220503827
           2        8               -515.4964576505               -515.4964530710
           2        9                 15.3030791347                 15.3030722972
           2       10                -21.7296094581                -21.7296135470
           2       11                 14.2969371730                 14.2969701621
           2       12                 21.0679693190                 21.0679697493
           2       13                 -2.3833606469                 -2.3833613176
           2       14                 13.7067136422                 13.7066766629
           2       15                 45.8013116808                 45.8013116965
           2       16                 52.2309815402                 52.2309831494
           2       17                 85.4120732416                 85.4120732763
           2       18                142.1019167745                142.1019167817
 * Note: Onsite integrals marked "***" above are less accurate than
 * onsite_accuracy_threshold =    0.03000 eV. Usually, this is harmless.
 * When in doubt, tighten the "radial" and/or "radial_multiplier" flags to check.

  Preparing densities etc. for the partition functions (integrals / Hartree potential).

  Preparations completed.
  max(cpu_time)          :      0.170 s.
  Wall clock time (cpu1) :      0.575 s.
------------------------------------------------------------

------------------------------------------------------------
          Begin self-consistency loop: Initialization.

          Date     :  20150727, Time     :  125600.140
------------------------------------------------------------

  Initializing index lists of integration centers etc. from given atomic structure:
  | Number of centers in hartree potential         :        16
  | Number of centers in hartree multipole         :        16
  | Number of centers in electron density summation:        16
  | Number of centers in basis integrals           :        16
  | Number of centers in integrals                 :        16
  Partitioning the integration grid into batches with parallel hashing+maxmin method.
  | Number of batches:     1993
  | Maximal batch size:     199
  | Minimal batch size:      62
  | Average batch size:     104.518
  | Standard deviation of batch sizes:      35.861

  Integration load balanced across     8 MPI tasks.
  Work distribution over tasks is as follows:
  Task     0 has      25993 integration points.
  Task     1 has      26022 integration points.
  Task     2 has      26092 integration points.
  Task     3 has      26069 integration points.
  Task     4 has      26060 integration points.
  Task     5 has      26001 integration points.
  Task     6 has      26036 integration points.
  Task     7 has      26031 integration points.
  Initializing partition tables, free-atom densities, potentials, etc. across the integration grid (initialize_grid_storage).
  | Net number of integration points:   208304
  | of which are non-zero points    :   207743
  Obtaining max. number of non-zero basis functions in each batch (get_n_compute_maxes).
  | Maximal number of non-zero basis functions:      356 in task     0
  | Maximal number of non-zero basis functions:      356 in task     1
  | Maximal number of non-zero basis functions:      356 in task     2
  | Maximal number of non-zero basis functions:      356 in task     3
  | Maximal number of non-zero basis functions:      356 in task     4
  | Maximal number of non-zero basis functions:      356 in task     5
  | Maximal number of non-zero basis functions:      356 in task     6
  | Maximal number of non-zero basis functions:      356 in task     7
  Integrating Hamiltonian matrix: batch-based integration.
  Time summed over all CPUs for integration: real work        7.488 s, elapsed        7.599 s
  Integrating overlap matrix.
  Time summed over all CPUs for integration: real work        4.041 s, elapsed        4.149 s

  Updating Kohn-Sham eigenvalues, eigenvectors, occupation numbers, and Fermi level.
  Solving generalized eigenproblem
  Updating Kohn-Sham eigenvalues and eigenfunctions.
  Transforming overlap matrix and checking for singularities.
  Overlap matrix is nonsingular:
  | Lowest eigenvalue:  0.284156E-03
  Solving real generalised eigenvalue problem by standard LAPACK (fast)
  Determining occupation numbers for Kohn-Sham eigenstates.
  | Chemical potential (Fermi level) in eV                 : -.30001567E+01
  | Error in electron count due to remaining E_F inaccuracy: -.40905945E-10
  | Maximum occupation number of highest empty state:  0.00E+00

  Writing Kohn-Sham eigenvalues.

  State    Occupation    Eigenvalue [Ha]    Eigenvalue [eV]
      1       2.00000         -19.064919         -518.78285
      2       2.00000         -19.050617         -518.39366
      3       2.00000         -19.042523         -518.17341
      4       2.00000         -19.042484         -518.17236
      5       2.00000         -19.028909         -517.80296
      6       2.00000          -1.122291          -30.53908
      7       2.00000          -1.100404          -29.94351
      8       2.00000          -1.085693          -29.54320
      9       2.00000          -1.081771          -29.43649
     10       2.00000          -1.059685          -28.83548
     11       2.00000          -0.639308          -17.39645
     12       2.00000          -0.631749          -17.19075
     13       2.00000          -0.605429          -16.47456
     14       2.00000          -0.603931          -16.43379
     15       2.00000          -0.601207          -16.35967
     16       2.00000          -0.600850          -16.34997
     17       2.00000          -0.522503          -14.21803
     18       2.00000          -0.515343          -14.02319
     19       2.00000          -0.507081          -13.79837
     20       2.00000          -0.486394          -13.23547
     21       2.00000          -0.482969          -13.14226
     22       2.00000          -0.438811          -11.94065
     23       2.00000          -0.435868          -11.86057
     24       2.00000          -0.432231          -11.76160
     25       2.00000          -0.417328          -11.35608
     26       1.00000          -0.110254           -3.00016
     27       0.00000          -0.078419           -2.13389
     28       0.00000          -0.068521           -1.86454
     29       0.00000          -0.059477           -1.61844
     30       0.00000          -0.038073           -1.03603
     31       0.00000          -0.025286           -0.68807
     32       0.00000          -0.018041           -0.49092
     33       0.00000           0.023711            0.64520
     34       0.00000           0.035302            0.96061
     35       0.00000           0.044384            1.20776
     36       0.00000           0.057468            1.56378
     37       0.00000           0.059412            1.61668
     38       0.00000           0.066961            1.82211
     39       0.00000           0.081212            2.20988
     40       0.00000           0.089688            2.44054
     41       0.00000           0.093531            2.54510
     42       0.00000           0.094847            2.58092
     43       0.00000           0.102356            2.78524
     44       0.00000           0.106267            2.89166
     45       0.00000           0.123862            3.37046
     46       0.00000           0.129380            3.52061
     47       0.00000           0.134441            3.65832
     48       0.00000           0.139472            3.79522
     49       0.00000           0.148537            4.04190
     50       0.00000           0.156592            4.26109
     51       0.00000           0.162064            4.40997
     52       0.00000           0.176939            4.81476
     53       0.00000           0.203241            5.53047
     54       0.00000           0.208873            5.68373
     55       0.00000           0.233384            6.35069
     56       0.00000           0.246416            6.70531
     57       0.00000           0.255244            6.94553
     58       0.00000           0.257557            7.00847
     59       0.00000           0.274715            7.47538
     60       0.00000           0.301967            8.21695
     61       0.00000           0.305193            8.30473
     62       0.00000           0.319077            8.68253
     63       0.00000           0.329903            8.97711
     64       0.00000           0.343905            9.35812
     65       0.00000           0.362006            9.85069
     66       0.00000           0.363223            9.88380
     67       0.00000           0.367998           10.01375
     68       0.00000           0.376772           10.25248
     69       0.00000           0.381629           10.38465
     70       0.00000           0.392403           10.67784
     71       0.00000           0.409097           11.13210
     72       0.00000           0.412959           11.23719
     73       0.00000           0.436968           11.89051
     74       0.00000           0.451445           12.28445
     75       0.00000           0.466335           12.68961
     76       0.00000           0.469234           12.76850
     77       0.00000           0.495796           13.49130
     78       0.00000           0.500805           13.62759
     79       0.00000           0.516564           14.05643
     80       0.00000           0.530954           14.44799
     81       0.00000           0.546033           14.85832
     82       0.00000           0.565494           15.38787
     83       0.00000           0.570418           15.52186
     84       0.00000           0.611329           16.63511
     85       0.00000           0.625927           17.03233
     86       0.00000           0.646355           17.58820
     87       0.00000           0.664936           18.09382
     88       0.00000           0.722083           19.64889
     89       0.00000           0.745361           20.28230
     90       0.00000           0.750369           20.41858

  Highest occupied state (VBM) at    -11.35608088 eV
  | Occupation number:      2.00000000

  Lowest unoccupied state (CBM) at    -3.00015670 eV
  | Occupation number:      1.00000000

  Overall HOMO-LUMO gap:      8.35592418 eV.
  Calculating total energy contributions from superposition of free atom densities.

  Total energy components:
  | Sum of eigenvalues            :        -217.31084611 Ha       -5913.32898943 eV
  | XC energy correction          :         -45.89387256 Ha       -1248.83581232 eV
  | XC potential correction       :          58.64912244 Ha        1595.92382136 eV
  | Free-atom electrostatic energy:        -178.97073311 Ha       -4870.04143302 eV
  | Hartree energy correction     :           0.00000000 Ha           0.00000000 eV
  | van der Waals energy corr.    :           0.00000000 Ha           0.00000000 eV
  | Entropy correction            :          -0.00010367 Ha          -0.00282095 eV
  | ---------------------------
  | Total energy                  :        -383.52632933 Ha      -10436.28241341 eV
  | Total energy, T -> 0          :        -383.52643300 Ha      -10436.28523435 eV  <-- do not rely on this value for anything but (periodic) metals
  | Electronic free energy        :        -383.52653667 Ha      -10436.28805530 eV

  Derived energy quantities:
  | Kinetic energy                :         379.78852588 Ha       10334.57160652 eV
  | Electrostatic energy          :        -717.42098266 Ha      -19522.01820760 eV
  | Energy correction for multipole
  | error in Hartree potential    :           0.00000000 Ha           0.00000000 eV
  | Sum of eigenvalues per atom                           :        -369.58306184 eV
  | Total energy (T->0) per atom                          :        -652.26782715 eV  <-- do not rely on this value for anything but (periodic) metals
  | Electronic free energy per atom                       :        -652.26800346 eV
  Initialize hartree_potential_storage
  Max. number of atoms included in rho_multipole:           16

  End scf initialization - timings             :  max(cpu_time)    wall_clock(cpu1)
  | Time for scf. initialization               :        2.096 s           2.096 s
  | Boundary condition initialization          :        0.000 s           0.001 s
  | Integration                                :        1.473 s           1.472 s
  | Solution of K.-S. eqns.                    :        0.212 s           0.213 s
  | Grid partitioning                          :        0.166 s           0.165 s
  | Preloading free-atom quantities on grid    :        0.014 s           0.013 s
  | Free-atom superposition energy             :        0.075 s           0.075 s
  | Total energy evaluation                    :        0.000 s           0.000 s
------------------------------------------------------------

------------------------------------------------------------
          Begin self-consistency iteration #    1

  Date     :  20150727, Time     :  125602.236
------------------------------------------------------------
  Evaluating new KS density.
  Integration grid: deviation in total charge (<rho> - N_e) =  -4.089884E-11
  Pulay mixing of updated and previous charge densities.

  Evaluating partitioned Hartree potential by multipole expansion.
  | Analytical far-field extrapolation by fixed multipoles:
  | Hartree multipole sum: apparent total charge =  -0.110867E-05
  Summing up the Hartree potential.
  Time summed over all CPUs for potential: real work        2.895 s, elapsed        2.922 s
  | RMS charge density error from multipole expansion :   0.160021E-02

  Integrating Hamiltonian matrix: batch-based integration.
  Time summed over all CPUs for integration: real work        7.482 s, elapsed        7.589 s

  Updating Kohn-Sham eigenvalues, eigenvectors, occupation numbers, and Fermi level.
  Solving generalized eigenproblem
  Updating Kohn-Sham eigenvalues and eigenfunctions.
  Solving real generalised eigenvalue problem by standard LAPACK (fast)
  Determining occupation numbers for Kohn-Sham eigenstates.
  | Chemical potential (Fermi level) in eV                 : -.27922748E+01
  | Error in electron count due to remaining E_F inaccuracy: 0.00000000E+00
  | Maximum occupation number of highest empty state:  0.00E+00

  Writing Kohn-Sham eigenvalues.

  State    Occupation    Eigenvalue [Ha]    Eigenvalue [eV]
      1       2.00000         -19.013566         -517.38546
      2       2.00000         -18.976361         -516.37307
      3       2.00000         -18.975783         -516.35732
      4       2.00000         -18.968525         -516.15984
      5       2.00000         -18.944423         -515.50398
      6       2.00000          -1.098182          -29.88306
      7       2.00000          -1.062461          -28.91105
      8       2.00000          -1.050432          -28.58370
      9       2.00000          -1.048537          -28.53215
     10       2.00000          -1.014657          -27.61023
     11       2.00000          -0.617896          -16.81381
     12       2.00000          -0.598438          -16.28433
     13       2.00000          -0.583111          -15.86726
     14       2.00000          -0.575962          -15.67273
     15       2.00000          -0.572852          -15.58811
     16       2.00000          -0.563626          -15.33704
     17       2.00000          -0.486471          -13.23755
     18       2.00000          -0.484232          -13.17661
     19       2.00000          -0.469259          -12.76919
     20       2.00000          -0.459791          -12.51155
     21       2.00000          -0.440352          -11.98260
     22       2.00000          -0.403038          -10.96721
     23       2.00000          -0.398059          -10.83174
     24       2.00000          -0.393369          -10.70412
     25       2.00000          -0.370972          -10.09466
     26       1.00000          -0.102614           -2.79227
     27       0.00000          -0.069996           -1.90468
     28       0.00000          -0.061324           -1.66872
     29       0.00000          -0.050365           -1.37051
     30       0.00000          -0.029803           -0.81098
     31       0.00000          -0.017908           -0.48731
     32       0.00000          -0.009937           -0.27039
     33       0.00000           0.033622            0.91491
     34       0.00000           0.043149            1.17414
     35       0.00000           0.051106            1.39065
     36       0.00000           0.063658            1.73223
     37       0.00000           0.067539            1.83783
     38       0.00000           0.073876            2.01026
     39       0.00000           0.087370            2.37747
     40       0.00000           0.098133            2.67033
     41       0.00000           0.100614            2.73784
     42       0.00000           0.106493            2.89782
     43       0.00000           0.111835            3.04318
     44       0.00000           0.115255            3.13625
     45       0.00000           0.133966            3.64540
     46       0.00000           0.136644            3.71827
     47       0.00000           0.147222            4.00612
     48       0.00000           0.149862            4.07794
     49       0.00000           0.157643            4.28969
     50       0.00000           0.165376            4.50010
     51       0.00000           0.171127            4.65661
     52       0.00000           0.186469            5.07409
     53       0.00000           0.213617            5.81280
     54       0.00000           0.216761            5.89836
     55       0.00000           0.240115            6.53386
     56       0.00000           0.253522            6.89868
     57       0.00000           0.261731            7.12207
     58       0.00000           0.264783            7.20512
     59       0.00000           0.283318            7.70949
     60       0.00000           0.308554            8.39617
     61       0.00000           0.315417            8.58294
     62       0.00000           0.326989            8.89782
     63       0.00000           0.337393            9.18093
     64       0.00000           0.352615            9.59514
     65       0.00000           0.369772           10.06200
     66       0.00000           0.372469           10.13540
     67       0.00000           0.375024           10.20493
     68       0.00000           0.384423           10.46068
     69       0.00000           0.390033           10.61333
     70       0.00000           0.401792           10.93332
     71       0.00000           0.416012           11.32026
     72       0.00000           0.422097           11.48584
     73       0.00000           0.444709           12.10115
     74       0.00000           0.460563           12.53255
     75       0.00000           0.473751           12.89142
     76       0.00000           0.476195           12.95791
     77       0.00000           0.504619           13.73138
     78       0.00000           0.513241           13.96601
     79       0.00000           0.527736           14.36042
     80       0.00000           0.541145           14.72531
     81       0.00000           0.556608           15.14607
     82       0.00000           0.575305           15.65486
     83       0.00000           0.581022           15.81041
     84       0.00000           0.621494           16.91172
     85       0.00000           0.635772           17.30023
     86       0.00000           0.657238           17.88435
     87       0.00000           0.675933           18.39307
     88       0.00000           0.735086           20.00271
     89       0.00000           0.754965           20.54364
     90       0.00000           0.761907           20.73255

  Highest occupied state (VBM) at     -2.79227478 eV
  | Occupation number:      1.00000000

  Lowest unoccupied state (CBM) at    -2.79227478 eV
  | Occupation number:      1.00000000

  Overall HOMO-LUMO gap:      0.00000000 eV.

  Total energy components:
  | Sum of eigenvalues            :        -215.24333053 Ha       -5857.06902810 eV
  | XC energy correction          :         -46.11207391 Ha       -1254.77337317 eV
  | XC potential correction       :          58.93444037 Ha        1603.68771711 eV
  | Free-atom electrostatic energy:        -178.97073311 Ha       -4870.04143302 eV
  | Hartree energy correction     :          -2.01339482 Ha         -54.78726070 eV
  | van der Waals energy corr.    :           0.00000000 Ha           0.00000000 eV
  | Entropy correction            :          -0.00010367 Ha          -0.00282095 eV
  | ---------------------------
  | Total energy                  :        -383.40509201 Ha      -10432.98337788 eV
  | Total energy, T -> 0          :        -383.40519568 Ha      -10432.98619882 eV  <-- do not rely on this value for anything but (periodic) metals
  | Electronic free energy        :        -383.40529934 Ha      -10432.98901977 eV

  Derived energy quantities:
  | Kinetic energy                :         381.10326716 Ha       10370.34753684 eV
  | Electrostatic energy          :        -718.39628526 Ha      -19548.55754155 eV
  | Energy correction for multipole
  | error in Hartree potential    :           0.00024040 Ha           0.00654153 eV
  | Sum of eigenvalues per atom                           :        -366.06681426 eV
  | Total energy (T->0) per atom                          :        -652.06163743 eV  <-- do not rely on this value for anything but (periodic) metals
  | Electronic free energy per atom                       :        -652.06181374 eV

  Self-consistency convergence accuracy:
  | Change of charge density      : 0.6248E+00
  | Change of sum of eigenvalues  : 0.5626E+02 eV
  | Change of total energy        : 0.3299E+01 eV

  End self-consistency iteration #     1       :  max(cpu_time)    wall_clock(cpu1)
  | Time for this iteration                    :        2.037 s           2.037 s
  | Charge density update                      :        0.648 s           0.648 s
  | Density mixing                             :        0.004 s           0.003 s
  | Hartree multipole update                   :        0.005 s           0.006 s
  | Hartree multipole summation                :        0.368 s           0.367 s
  | Integration                                :        0.950 s           0.951 s
  | Solution of K.-S. eqns.                    :        0.057 s           0.057 s
  | Total energy evaluation                    :        0.000 s           0.000 s
------------------------------------------------------------

------------------------------------------------------------
          Begin self-consistency iteration #    2

  Date     :  20150727, Time     :  125604.273
------------------------------------------------------------
  Evaluating new KS density.
  Integration grid: deviation in total charge (<rho> - N_e) =   2.842171E-14
  Pulay mixing of updated and previous charge densities.

  Evaluating partitioned Hartree potential by multipole expansion.
  | Analytical far-field extrapolation by fixed multipoles:
  | Hartree multipole sum: apparent total charge =  -0.305914E-05
  Summing up the Hartree potential.
  Time summed over all CPUs for potential: real work        2.891 s, elapsed        2.904 s
  | RMS charge density error from multipole expansion :   0.639880E-02

  Integrating Hamiltonian matrix: batch-based integration.
  Time summed over all CPUs for integration: real work        7.453 s, elapsed        7.584 s

  Updating Kohn-Sham eigenvalues, eigenvectors, occupation numbers, and Fermi level.
  Solving generalized eigenproblem
  Updating Kohn-Sham eigenvalues and eigenfunctions.
  Solving real generalised eigenvalue problem by standard LAPACK (fast)
  Determining occupation numbers for Kohn-Sham eigenstates.
  | Chemical potential (Fermi level) in eV                 : -.23033312E+01
  | Error in electron count due to remaining E_F inaccuracy: 0.29836400E-09
  | Maximum occupation number of highest empty state:  0.00E+00

  Highest occupied state (VBM) at     -2.30333116 eV
  | Occupation number:      1.00000000

  Lowest unoccupied state (CBM) at    -1.38721779 eV
  | Occupation number:      0.00000000

  Overall HOMO-LUMO gap:      0.91611337 eV.

  Total energy components:
  | Sum of eigenvalues            :        -210.40625556 Ha       -5725.44552130 eV
  | XC energy correction          :         -46.64644621 Ha       -1269.31438334 eV
  | XC potential correction       :          59.63182061 Ha        1622.66439893 eV
  | Free-atom electrostatic energy:        -178.97073311 Ha       -4870.04143302 eV
  | Hartree energy correction     :          -6.87803478 Ha        -187.16084912 eV
  | van der Waals energy corr.    :           0.00000000 Ha           0.00000000 eV
  | Entropy correction            :          -0.00010367 Ha          -0.00282095 eV
  | ---------------------------
  | Total energy                  :        -383.26964906 Ha      -10429.29778783 eV
  | Total energy, T -> 0          :        -383.26975273 Ha      -10429.30060878 eV  <-- do not rely on this value for anything but (periodic) metals
  | Electronic free energy        :        -383.26985640 Ha      -10429.30342972 eV

  Derived energy quantities:
  | Kinetic energy                :         383.75115682 Ha       10442.40028065 eV
  | Electrostatic energy          :        -720.37435968 Ha      -19602.38368514 eV
  | Energy correction for multipole
  | error in Hartree potential    :           0.00012855 Ha           0.00349800 eV
  | Sum of eigenvalues per atom                           :        -357.84034508 eV
  | Total energy (T->0) per atom                          :        -651.83128805 eV  <-- do not rely on this value for anything but (periodic) metals
  | Electronic free energy per atom                       :        -651.83146436 eV

  Self-consistency convergence accuracy:
  | Change of charge density      : 0.4731E+00
  | Change of sum of eigenvalues  : 0.1316E+03 eV
  | Change of total energy        : 0.3686E+01 eV

  End self-consistency iteration #     2       :  max(cpu_time)    wall_clock(cpu1)
  | Time for this iteration                    :        2.026 s           2.025 s
  | Charge density update                      :        0.642 s           0.642 s
  | Density mixing                             :        0.006 s           0.006 s
  | Hartree multipole update                   :        0.005 s           0.005 s
  | Hartree multipole summation                :        0.364 s           0.364 s
  | Integration                                :        0.950 s           0.950 s
  | Solution of K.-S. eqns.                    :        0.058 s           0.057 s
  | Total energy evaluation                    :        0.000 s           0.001 s
------------------------------------------------------------

------------------------------------------------------------
          Begin self-consistency iteration #    3

  Date     :  20150727, Time     :  125606.299
------------------------------------------------------------
  Evaluating new KS density.
  Integration grid: deviation in total charge (<rho> - N_e) =   2.983995E-10
  Pulay mixing of updated and previous charge densities.

  Evaluating partitioned Hartree potential by multipole expansion.
  | Analytical far-field extrapolation by fixed multipoles:
  | Hartree multipole sum: apparent total charge =  -0.222335E-05
  Summing up the Hartree potential.
  Time summed over all CPUs for potential: real work        2.892 s, elapsed        2.904 s
  | RMS charge density error from multipole expansion :   0.133666E-01

  Integrating Hamiltonian matrix: batch-based integration.
  Time summed over all CPUs for integration: real work        7.452 s, elapsed        7.567 s

  Updating Kohn-Sham eigenvalues, eigenvectors, occupation numbers, and Fermi level.
  Solving generalized eigenproblem
  Updating Kohn-Sham eigenvalues and eigenfunctions.
  Solving real generalised eigenvalue problem by standard LAPACK (fast)
  Determining occupation numbers for Kohn-Sham eigenstates.
  | Chemical potential (Fermi level) in eV                 : -.23006063E+01
  | Error in electron count due to remaining E_F inaccuracy: 0.34106051E-12
  | Maximum occupation number of highest empty state:  0.00E+00

  Highest occupied state (VBM) at     -2.30060632 eV
  | Occupation number:      1.00000000

  Lowest unoccupied state (CBM) at    -1.36427209 eV
  | Occupation number:      0.00000000

  Overall HOMO-LUMO gap:      0.93633423 eV.

  Total energy components:
  | Sum of eigenvalues            :        -210.65390412 Ha       -5732.18438131 eV
  | XC energy correction          :         -46.63447427 Ha       -1268.98861026 eV
  | XC potential correction       :          59.60821570 Ha        1622.02207675 eV
  | Free-atom electrostatic energy:        -178.97073311 Ha       -4870.04143302 eV
  | Hartree energy correction     :          -6.61559069 Ha        -180.01938194 eV
  | van der Waals energy corr.    :           0.00000000 Ha           0.00000000 eV
  | Entropy correction            :          -0.00010367 Ha          -0.00282095 eV
  | ---------------------------
  | Total energy                  :        -383.26648649 Ha      -10429.21172978 eV
  | Total energy, T -> 0          :        -383.26659016 Ha      -10429.21455073 eV  <-- do not rely on this value for anything but (periodic) metals
  | Electronic free energy        :        -383.26669382 Ha      -10429.21737167 eV

  Derived energy quantities:
  | Kinetic energy                :         381.90626189 Ha       10392.19813523 eV
  | Electrostatic energy          :        -718.53827411 Ha      -19552.42125474 eV
  | Energy correction for multipole
  | error in Hartree potential    :          -0.00397168 Ha          -0.10807494 eV
  | Sum of eigenvalues per atom                           :        -358.26152383 eV
  | Total energy (T->0) per atom                          :        -651.82590942 eV  <-- do not rely on this value for anything but (periodic) metals
  | Electronic free energy per atom                       :        -651.82608573 eV

  Self-consistency convergence accuracy:
  | Change of charge density      : 0.2371E+00
  | Change of sum of eigenvalues  : -.6739E+01 eV
  | Change of total energy        : 0.8606E-01 eV

  End self-consistency iteration #     3       :  max(cpu_time)    wall_clock(cpu1)
  | Time for this iteration                    :        2.019 s           2.019 s
  | Charge density update                      :        0.636 s           0.636 s
  | Density mixing                             :        0.007 s           0.007 s
  | Hartree multipole update                   :        0.005 s           0.005 s
  | Hartree multipole summation                :        0.364 s           0.364 s
  | Integration                                :        0.948 s           0.948 s
  | Solution of K.-S. eqns.                    :        0.057 s           0.057 s
  | Total energy evaluation                    :        0.000 s           0.000 s
------------------------------------------------------------

------------------------------------------------------------
          Begin self-consistency iteration #    4

  Date     :  20150727, Time     :  125608.318
------------------------------------------------------------
  Evaluating new KS density.
  Integration grid: deviation in total charge (<rho> - N_e) =   3.410605E-13
  Pulay mixing of updated and previous charge densities.

  Evaluating partitioned Hartree potential by multipole expansion.
  | Analytical far-field extrapolation by fixed multipoles:
  | Hartree multipole sum: apparent total charge =  -0.270479E-05
  Summing up the Hartree potential.
  Time summed over all CPUs for potential: real work        2.890 s, elapsed        2.903 s
  | RMS charge density error from multipole expansion :   0.168696E-01

  Integrating Hamiltonian matrix: batch-based integration.
  Time summed over all CPUs for integration: real work        7.458 s, elapsed        7.563 s

  Updating Kohn-Sham eigenvalues, eigenvectors, occupation numbers, and Fermi level.
  Solving generalized eigenproblem
  Updating Kohn-Sham eigenvalues and eigenfunctions.
  Solving real generalised eigenvalue problem by standard LAPACK (fast)
  Determining occupation numbers for Kohn-Sham eigenstates.
  | Chemical potential (Fermi level) in eV                 : -.21609137E+01
  | Error in electron count due to remaining E_F inaccuracy: -.68773431E-10
  | Maximum occupation number of highest empty state:  0.00E+00

  Highest occupied state (VBM) at     -5.83606105 eV
  | Occupation number:      2.00000000

  Lowest unoccupied state (CBM) at    -2.16091368 eV
  | Occupation number:      1.00000000

  Overall HOMO-LUMO gap:      3.67514737 eV.

  Total energy components:
  | Sum of eigenvalues            :        -209.40981583 Ha       -5698.33101651 eV
  | XC energy correction          :         -46.79328808 Ha       -1273.31015397 eV
  | XC potential correction       :          59.81313485 Ha        1627.59821043 eV
  | Free-atom electrostatic energy:        -178.97073311 Ha       -4870.04143302 eV
  | Hartree energy correction     :          -7.89931290 Ha        -214.95124051 eV
  | van der Waals energy corr.    :           0.00000000 Ha           0.00000000 eV
  | Entropy correction            :          -0.00010367 Ha          -0.00282095 eV
  | ---------------------------
  | Total energy                  :        -383.26001507 Ha      -10429.03563358 eV
  | Total energy, T -> 0          :        -383.26011874 Ha      -10429.03845453 eV  <-- do not rely on this value for anything but (periodic) metals
  | Electronic free energy        :        -383.26022241 Ha      -10429.04127547 eV

  Derived energy quantities:
  | Kinetic energy                :         382.03613990 Ha       10395.73229567 eV
  | Electrostatic energy          :        -718.50286689 Ha      -19551.45777528 eV
  | Energy correction for multipole
  | error in Hartree potential    :          -0.00533617 Ha          -0.14520465 eV
  | Sum of eigenvalues per atom                           :        -356.14568853 eV
  | Total energy (T->0) per atom                          :        -651.81490341 eV  <-- do not rely on this value for anything but (periodic) metals
  | Electronic free energy per atom                       :        -651.81507972 eV

  Self-consistency convergence accuracy:
  | Change of charge density      : 0.1117E+00
  | Change of sum of eigenvalues  : 0.3385E+02 eV
  | Change of total energy        : 0.1761E+00 eV

  End self-consistency iteration #     4       :  max(cpu_time)    wall_clock(cpu1)
  | Time for this iteration                    :        2.021 s           2.021 s
  | Charge density update                      :        0.637 s           0.637 s
  | Density mixing                             :        0.009 s           0.008 s
  | Hartree multipole update                   :        0.005 s           0.005 s
  | Hartree multipole summation                :        0.363 s           0.363 s
  | Integration                                :        0.947 s           0.948 s
  | Solution of K.-S. eqns.                    :        0.058 s           0.057 s
  | Total energy evaluation                    :        0.001 s           0.000 s
------------------------------------------------------------

------------------------------------------------------------
          Begin self-consistency iteration #    5

  Date     :  20150727, Time     :  125610.339
------------------------------------------------------------
  Evaluating new KS density.
  Integration grid: deviation in total charge (<rho> - N_e) =  -6.875212E-11
  Pulay mixing of updated and previous charge densities.

  Evaluating partitioned Hartree potential by multipole expansion.
  | Analytical far-field extrapolation by fixed multipoles:
  | Hartree multipole sum: apparent total charge =  -0.264623E-05
  Summing up the Hartree potential.
  Time summed over all CPUs for potential: real work        2.891 s, elapsed        2.903 s
  | RMS charge density error from multipole expansion :   0.172876E-01

  Integrating Hamiltonian matrix: batch-based integration.
  Time summed over all CPUs for integration: real work        7.456 s, elapsed        7.565 s

  Updating Kohn-Sham eigenvalues, eigenvectors, occupation numbers, and Fermi level.
  Solving generalized eigenproblem
  Updating Kohn-Sham eigenvalues and eigenfunctions.
  Solving real generalised eigenvalue problem by standard LAPACK (fast)
  Determining occupation numbers for Kohn-Sham eigenstates.
  | Chemical potential (Fermi level) in eV                 : -.21288037E+01
  | Error in electron count due to remaining E_F inaccuracy: 0.10599166E-08
  | Maximum occupation number of highest empty state:  0.00E+00

  Highest occupied state (VBM) at     -2.12880369 eV
  | Occupation number:      1.00000000

  Lowest unoccupied state (CBM) at    -1.20704083 eV
  | Occupation number:      0.00000000

  Overall HOMO-LUMO gap:      0.92176286 eV.

  Total energy components:
  | Sum of eigenvalues            :        -209.34497626 Ha       -5696.56664211 eV
  | XC energy correction          :         -46.80345254 Ha       -1273.58674286 eV
  | XC potential correction       :          59.82585370 Ha        1627.94430799 eV
  | Free-atom electrostatic energy:        -178.97073311 Ha       -4870.04143302 eV
  | Hartree energy correction     :          -7.96656529 Ha        -216.78127132 eV
  | van der Waals energy corr.    :           0.00000000 Ha           0.00000000 eV
  | Entropy correction            :          -0.00010367 Ha          -0.00282095 eV
  | ---------------------------
  | Total energy                  :        -383.25987350 Ha      -10429.03178131 eV
  | Total energy, T -> 0          :        -383.25997717 Ha      -10429.03460226 eV  <-- do not rely on this value for anything but (periodic) metals
  | Electronic free energy        :        -383.26008084 Ha      -10429.03742321 eV

  Derived energy quantities:
  | Kinetic energy                :         382.08053665 Ha       10396.94039266 eV
  | Electrostatic energy          :        -718.53695761 Ha      -19552.38543111 eV
  | Energy correction for multipole
  | error in Hartree potential    :          -0.00550890 Ha          -0.14990483 eV
  | Sum of eigenvalues per atom                           :        -356.03541513 eV
  | Total energy (T->0) per atom                          :        -651.81466264 eV  <-- do not rely on this value for anything but (periodic) metals
  | Electronic free energy per atom                       :        -651.81483895 eV

  Self-consistency convergence accuracy:
  | Change of charge density      : 0.2167E-01
  | Change of sum of eigenvalues  : 0.1764E+01 eV
  | Change of total energy        : 0.3852E-02 eV

  End self-consistency iteration #     5       :  max(cpu_time)    wall_clock(cpu1)
  | Time for this iteration                    :        2.023 s           2.023 s
  | Charge density update                      :        0.638 s           0.638 s
  | Density mixing                             :        0.010 s           0.010 s
  | Hartree multipole update                   :        0.005 s           0.005 s
  | Hartree multipole summation                :        0.364 s           0.364 s
  | Integration                                :        0.948 s           0.947 s
  | Solution of K.-S. eqns.                    :        0.057 s           0.057 s
  | Total energy evaluation                    :        0.000 s           0.000 s
------------------------------------------------------------

------------------------------------------------------------
          Begin self-consistency iteration #    6

  Date     :  20150727, Time     :  125612.362
------------------------------------------------------------
  Evaluating new KS density.
  Integration grid: deviation in total charge (<rho> - N_e) =   1.059909E-09
  Pulay mixing of updated and previous charge densities.

  Evaluating partitioned Hartree potential by multipole expansion.
  | Analytical far-field extrapolation by fixed multipoles:
  | Hartree multipole sum: apparent total charge =  -0.261396E-05
  Summing up the Hartree potential.
  Time summed over all CPUs for potential: real work        2.891 s, elapsed        2.903 s
  | RMS charge density error from multipole expansion :   0.174073E-01

  Integrating Hamiltonian matrix: batch-based integration.
  Time summed over all CPUs for integration: real work        7.455 s, elapsed        7.562 s

  Updating Kohn-Sham eigenvalues, eigenvectors, occupation numbers, and Fermi level.
  Solving generalized eigenproblem
  Updating Kohn-Sham eigenvalues and eigenfunctions.
  Solving real generalised eigenvalue problem by standard LAPACK (fast)
  Determining occupation numbers for Kohn-Sham eigenstates.
  | Chemical potential (Fermi level) in eV                 : -.21309628E+01
  | Error in electron count due to remaining E_F inaccuracy: -.25579538E-12
  | Maximum occupation number of highest empty state:  0.00E+00

  Highest occupied state (VBM) at     -5.82244974 eV
  | Occupation number:      2.00000000

  Lowest unoccupied state (CBM) at    -2.13096277 eV
  | Occupation number:      1.00000000

  Overall HOMO-LUMO gap:      3.69148696 eV.

  Total energy components:
  | Sum of eigenvalues            :        -209.37044597 Ha       -5697.25970825 eV
  | XC energy correction          :         -46.80152736 Ha       -1273.53435623 eV
  | XC potential correction       :          59.82312297 Ha        1627.87000100 eV
  | Free-atom electrostatic energy:        -178.97073311 Ha       -4870.04143302 eV
  | Hartree energy correction     :          -7.94028032 Ha        -216.06602072 eV
  | van der Waals energy corr.    :           0.00000000 Ha           0.00000000 eV
  | Entropy correction            :          -0.00010367 Ha          -0.00282095 eV
  | ---------------------------
  | Total energy                  :        -383.25986380 Ha      -10429.03151722 eV
  | Total energy, T -> 0          :        -383.25996747 Ha      -10429.03433816 eV  <-- do not rely on this value for anything but (periodic) metals
  | Electronic free energy        :        -383.26007113 Ha      -10429.03715911 eV

  Derived energy quantities:
  | Kinetic energy                :         382.06373602 Ha       10396.48322422 eV
  | Electrostatic energy          :        -718.52207245 Ha      -19551.98038520 eV
  | Energy correction for multipole
  | error in Hartree potential    :          -0.00558264 Ha          -0.15191141 eV
  | Sum of eigenvalues per atom                           :        -356.07873177 eV
  | Total energy (T->0) per atom                          :        -651.81464614 eV  <-- do not rely on this value for anything but (periodic) metals
  | Electronic free energy per atom                       :        -651.81482244 eV

  Self-consistency convergence accuracy:
  | Change of charge density      : 0.9912E-02
  | Change of sum of eigenvalues  : -.6931E+00 eV
  | Change of total energy        : 0.2641E-03 eV

  End self-consistency iteration #     6       :  max(cpu_time)    wall_clock(cpu1)
  | Time for this iteration                    :        2.025 s           2.024 s
  | Charge density update                      :        0.638 s           0.637 s
  | Density mixing                             :        0.011 s           0.012 s
  | Hartree multipole update                   :        0.005 s           0.005 s
  | Hartree multipole summation                :        0.363 s           0.364 s
  | Integration                                :        0.947 s           0.947 s
  | Solution of K.-S. eqns.                    :        0.057 s           0.057 s
  | Total energy evaluation                    :        0.000 s           0.001 s
------------------------------------------------------------

------------------------------------------------------------
          Begin self-consistency iteration #    7

  Date     :  20150727, Time     :  125614.386
------------------------------------------------------------
  Evaluating new KS density.
  Integration grid: deviation in total charge (<rho> - N_e) =  -2.131628E-13
  Pulay mixing of updated and previous charge densities.

  Evaluating partitioned Hartree potential by multipole expansion.
  | Analytical far-field extrapolation by fixed multipoles:
  | Hartree multipole sum: apparent total charge =  -0.254116E-05
  Summing up the Hartree potential.
  Time summed over all CPUs for potential: real work        2.891 s, elapsed        2.904 s
  | RMS charge density error from multipole expansion :   0.174687E-01

  Integrating Hamiltonian matrix: batch-based integration.
  Time summed over all CPUs for integration: real work        7.455 s, elapsed        7.575 s

  Updating Kohn-Sham eigenvalues, eigenvectors, occupation numbers, and Fermi level.
  Solving generalized eigenproblem
  Updating Kohn-Sham eigenvalues and eigenfunctions.
  Solving real generalised eigenvalue problem by standard LAPACK (fast)
  Determining occupation numbers for Kohn-Sham eigenstates.
  | Chemical potential (Fermi level) in eV                 : -.21431853E+01
  | Error in electron count due to remaining E_F inaccuracy: 0.00000000E+00
  | Maximum occupation number of highest empty state:  0.00E+00

  Highest occupied state (VBM) at     -2.14318530 eV
  | Occupation number:      1.00000000

  Lowest unoccupied state (CBM) at    -2.14318530 eV
  | Occupation number:      1.00000000

  Overall HOMO-LUMO gap:      0.00000000 eV.

  Total energy components:
  | Sum of eigenvalues            :        -209.44977014 Ha       -5699.41822872 eV
  | XC energy correction          :         -46.79392389 Ha       -1273.32745515 eV
  | XC potential correction       :          59.81281286 Ha        1627.58944884 eV
  | Free-atom electrostatic energy:        -178.97073311 Ha       -4870.04143302 eV
  | Hartree energy correction     :          -7.85820713 Ha        -213.83269560 eV
  | van der Waals energy corr.    :           0.00000000 Ha           0.00000000 eV
  | Entropy correction            :          -0.00010367 Ha          -0.00282095 eV
  | ---------------------------
  | Total energy                  :        -383.25982140 Ha      -10429.03036364 eV
  | Total energy, T -> 0          :        -383.25992507 Ha      -10429.03318459 eV  <-- do not rely on this value for anything but (periodic) metals
  | Electronic free energy        :        -383.26002874 Ha      -10429.03600554 eV

  Derived energy quantities:
  | Kinetic energy                :         382.09260382 Ha       10397.26875727 eV
  | Electrostatic energy          :        -718.55850134 Ha      -19552.97166576 eV
  | Energy correction for multipole
  | error in Hartree potential    :          -0.00563275 Ha          -0.15327494 eV
  | Sum of eigenvalues per atom                           :        -356.21363929 eV
  | Total energy (T->0) per atom                          :        -651.81457404 eV  <-- do not rely on this value for anything but (periodic) metals
  | Electronic free energy per atom                       :        -651.81475035 eV

  Self-consistency convergence accuracy:
  | Change of charge density      : 0.7900E-02
  | Change of sum of eigenvalues  : -.2159E+01 eV
  | Change of total energy        : 0.1154E-02 eV

  End self-consistency iteration #     7       :  max(cpu_time)    wall_clock(cpu1)
  | Time for this iteration                    :        2.026 s           2.025 s
  | Charge density update                      :        0.637 s           0.636 s
  | Density mixing                             :        0.013 s           0.013 s
  | Hartree multipole update                   :        0.005 s           0.006 s
  | Hartree multipole summation                :        0.363 s           0.363 s
  | Integration                                :        0.949 s           0.949 s
  | Solution of K.-S. eqns.                    :        0.057 s           0.057 s
  | Total energy evaluation                    :        0.000 s           0.001 s
------------------------------------------------------------

------------------------------------------------------------
          Begin self-consistency iteration #    8

  Date     :  20150727, Time     :  125616.413
------------------------------------------------------------
  Evaluating new KS density.
  Integration grid: deviation in total charge (<rho> - N_e) =   3.552714E-14
  Pulay mixing of updated and previous charge densities.

  Evaluating partitioned Hartree potential by multipole expansion.
  | Analytical far-field extrapolation by fixed multipoles:
  | Hartree multipole sum: apparent total charge =  -0.252170E-05
  Summing up the Hartree potential.
  Time summed over all CPUs for potential: real work        2.891 s, elapsed        2.903 s
  | RMS charge density error from multipole expansion :   0.175198E-01

  Integrating Hamiltonian matrix: batch-based integration.
  Time summed over all CPUs for integration: real work        7.459 s, elapsed        7.583 s

  Updating Kohn-Sham eigenvalues, eigenvectors, occupation numbers, and Fermi level.
  Solving generalized eigenproblem
  Updating Kohn-Sham eigenvalues and eigenfunctions.
  Solving real generalised eigenvalue problem by standard LAPACK (fast)
  Determining occupation numbers for Kohn-Sham eigenstates.
  | Chemical potential (Fermi level) in eV                 : -.21447227E+01
  | Error in electron count due to remaining E_F inaccuracy: 0.00000000E+00
  | Maximum occupation number of highest empty state:  0.00E+00

  Highest occupied state (VBM) at     -2.14472272 eV
  | Occupation number:      1.00000000

  Lowest unoccupied state (CBM) at    -2.14472272 eV
  | Occupation number:      1.00000000

  Overall HOMO-LUMO gap:      0.00000000 eV.

  Total energy components:
  | Sum of eigenvalues            :        -209.46823037 Ha       -5699.92055700 eV
  | XC energy correction          :         -46.79246023 Ha       -1273.28762690 eV
  | XC potential correction       :          59.81075980 Ha        1627.53358222 eV
  | Free-atom electrostatic energy:        -178.97073311 Ha       -4870.04143302 eV
  | Hartree energy correction     :          -7.83915584 Ha        -213.31428377 eV
  | van der Waals energy corr.    :           0.00000000 Ha           0.00000000 eV
  | Entropy correction            :          -0.00010367 Ha          -0.00282095 eV
  | ---------------------------
  | Total energy                  :        -383.25981974 Ha      -10429.03031846 eV
  | Total energy, T -> 0          :        -383.25992341 Ha      -10429.03313941 eV  <-- do not rely on this value for anything but (periodic) metals
  | Electronic free energy        :        -383.26002708 Ha      -10429.03596036 eV

  Derived energy quantities:
  | Kinetic energy                :         382.10248815 Ha       10397.53772343 eV
  | Electrostatic energy          :        -718.56984767 Ha      -19553.28041499 eV
  | Energy correction for multipole
  | error in Hartree potential    :          -0.00566628 Ha          -0.15418738 eV
  | Sum of eigenvalues per atom                           :        -356.24503481 eV
  | Total energy (T->0) per atom                          :        -651.81457121 eV  <-- do not rely on this value for anything but (periodic) metals
  | Electronic free energy per atom                       :        -651.81474752 eV

  Self-consistency convergence accuracy:
  | Change of charge density      : 0.2596E-02
  | Change of sum of eigenvalues  : -.5023E+00 eV
  | Change of total energy        : 0.4518E-04 eV

  End self-consistency iteration #     8       :  max(cpu_time)    wall_clock(cpu1)
  | Time for this iteration                    :        2.028 s           2.027 s
  | Charge density update                      :        0.635 s           0.635 s
  | Density mixing                             :        0.014 s           0.015 s
  | Hartree multipole update                   :        0.005 s           0.005 s
  | Hartree multipole summation                :        0.364 s           0.363 s
  | Integration                                :        0.950 s           0.950 s
  | Solution of K.-S. eqns.                    :        0.057 s           0.058 s
  | Total energy evaluation                    :        0.001 s           0.001 s
------------------------------------------------------------

------------------------------------------------------------
          Begin self-consistency iteration #    9

  Date     :  20150727, Time     :  125618.441
------------------------------------------------------------
  Evaluating new KS density.
  Integration grid: deviation in total charge (<rho> - N_e) =   7.105427E-15
  Pulay mixing of updated and previous charge densities.

  Evaluating partitioned Hartree potential by multipole expansion.
  | Analytical far-field extrapolation by fixed multipoles:
  | Hartree multipole sum: apparent total charge =  -0.251846E-05
  Summing up the Hartree potential.
  Time summed over all CPUs for potential: real work        2.891 s, elapsed        2.903 s
  | RMS charge density error from multipole expansion :   0.175058E-01

  Integrating Hamiltonian matrix: batch-based integration.
  Time summed over all CPUs for integration: real work        7.455 s, elapsed        7.571 s

  Updating Kohn-Sham eigenvalues, eigenvectors, occupation numbers, and Fermi level.
  Solving generalized eigenproblem
  Updating Kohn-Sham eigenvalues and eigenfunctions.
  Solving real generalised eigenvalue problem by standard LAPACK (fast)
  Determining occupation numbers for Kohn-Sham eigenstates.
  | Chemical potential (Fermi level) in eV                 : -.21467970E+01
  | Error in electron count due to remaining E_F inaccuracy: 0.00000000E+00
  | Maximum occupation number of highest empty state:  0.00E+00

  Highest occupied state (VBM) at     -2.14679704 eV
  | Occupation number:      1.00000000

  Lowest unoccupied state (CBM) at    -2.14679704 eV
  | Occupation number:      1.00000000

  Overall HOMO-LUMO gap:      0.00000000 eV.

  Total energy components:
  | Sum of eigenvalues            :        -209.46777290 Ha       -5699.90810869 eV
  | XC energy correction          :         -46.79250511 Ha       -1273.28884819 eV
  | XC potential correction       :          59.81082155 Ha        1627.53526249 eV
  | Free-atom electrostatic energy:        -178.97073311 Ha       -4870.04143302 eV
  | Hartree energy correction     :          -7.83962836 Ha        -213.32714168 eV
[...]
   Van der Waals               : -.282053E-03 0.163128E-02 0.960042E-03
   ----------------------------------------------------------------
   Total forces(   7)            : -.113940E+01 0.576470E+00 -.262503E+00
  atom #    8
   Hellmann-Feynman + Multipole  : 0.587689E+01 -.701089E+01 -.100776E+02
   Pulay + GGA                   : -.626428E+01 0.759454E+01 0.120533E+02
   Van der Waals               : 0.388506E-02 -.371218E-02 -.838564E-02
   ----------------------------------------------------------------
   Total forces(   8)            : -.383502E+00 0.579933E+00 0.196735E+01
  atom #    9
   Hellmann-Feynman + Multipole  : -.359308E+00 0.213111E+00 -.233676E+01
   Pulay + GGA                   : 0.181280E-01 0.566533E-02 0.130964E+00
   Van der Waals               : -.171654E-03 0.741399E-03 -.349484E-02
   ----------------------------------------------------------------
   Total forces(   9)            : -.341352E+00 0.219518E+00 -.220929E+01
  atom #   10
   Hellmann-Feynman + Multipole  : 0.117276E+01 -.128365E+01 0.346650E+00
   Pulay + GGA                   : -.501687E-01 0.673621E-01 0.271880E-02
   Van der Waals               : 0.953693E-03 -.352119E-02 -.232330E-02
   ----------------------------------------------------------------
   Total forces(  10)            : 0.112354E+01 -.121981E+01 0.347046E+00
  atom #   11
   Hellmann-Feynman + Multipole  : -.122877E+02 -.549451E+01 -.179103E+01
   Pulay + GGA                   : 0.131420E+02 0.688358E+01 0.126315E+01
   Van der Waals               : 0.423112E-02 -.822479E-02 0.196674E-02
   ----------------------------------------------------------------
   Total forces(  11)            : 0.858535E+00 0.138085E+01 -.525915E+00
  atom #   12
   Hellmann-Feynman + Multipole  : -.344355E+00 -.864924E-01 -.428175E-01
   Pulay + GGA                   : 0.132159E+00 -.580457E-01 0.211614E-01
   Van der Waals               : 0.251958E-02 -.314612E-02 -.463851E-02
   ----------------------------------------------------------------
   Total forces(  12)            : -.209677E+00 -.147684E+00 -.262945E-01
  atom #   13
   Hellmann-Feynman + Multipole  : -.685529E+00 -.129965E+01 0.624917E+00
   Pulay + GGA                   : 0.473702E-01 0.103391E+00 -.746322E-01
   Van der Waals               : -.604369E-03 -.427932E-02 0.240672E-02
   ----------------------------------------------------------------
   Total forces(  13)            : -.638763E+00 -.120053E+01 0.552692E+00
  atom #   14
   Hellmann-Feynman + Multipole  : -.132962E+01 -.126446E+02 -.474888E+00
   Pulay + GGA                   : 0.184043E+01 0.131270E+02 -.939537E+00
   Van der Waals               : -.388008E-02 -.734582E-03 -.132579E-03
   ----------------------------------------------------------------
   Total forces(  14)            : 0.506937E+00 0.481659E+00 -.141456E+01
  atom #   15
   Hellmann-Feynman + Multipole  : -.284004E+00 0.452145E+00 0.358211E+00
   Pulay + GGA                   : -.818589E-01 0.865878E-01 0.703754E-01
   Van der Waals               : 0.402252E-02 -.169658E-02 -.293346E-02
   ----------------------------------------------------------------
   Total forces(  15)            : -.361840E+00 0.537036E+00 0.425653E+00
  atom #   16
   Hellmann-Feynman + Multipole  : -.573973E+00 -.772830E+00 0.854175E+00
   Pulay + GGA                   : 0.294694E-01 0.689791E-01 -.691794E-01
   Van der Waals               : -.140684E-02 -.642611E-03 -.133971E-02
   ----------------------------------------------------------------
   Total forces(  16)            : -.545911E+00 -.704493E+00 0.783656E+00
  Timings for vdw_correction_hirshfeld (Tkatchenko-Scheffler 2009):
  | CPU time:        5.457 s, Wall clock time:        5.460 s.
  Removing unitary transformations (pure translations, rotations) from forces on atoms.
  Atomic forces before filtering:
  | Net force on center of mass :  0.612462E-02 0.480326E-02 0.171230E-02 eV/A
  | Net torque on center of mass:  -.141212E-01 0.162968E-01 -.126290E-01 eV
  Atomic forces after filtering:
  | Net force on center of mass :  -.892031E-16 0.446015E-15 0.892031E-16 eV/A
  | Net torque on center of mass:  -.755268E-15 -.755268E-15 -.944085E-15 eV
 
  Energy and forces in a compact form:
  | Total energy uncorrected      :         -0.104291089995332E+05 eV
  | Total energy corrected        :         -0.104291118204811E+05 eV  <-- do not rely on this value for anything but (periodic) metals
  | Electronic free energy        :         -0.104291146414291E+05 eV
  Total atomic forces (unitary forces cleaned) [eV/Ang]:
  |   1         -0.180332507868018E+01          0.791069674261760E+00         -0.204193511101721E+00
  |   2          0.543527853968395E+00         -0.104819257399410E+01          0.440643142818966E+00
  |   3          0.102252485027279E+01          0.147590346930707E+00          0.272897051520012E-01
  |   4          0.813275263100879E-01          0.524561512862620E-01         -0.229483756644440E+00
  |   5          0.143462833396506E+01         -0.748670652412073E-02          0.100195683291227E+01
  |   6         -0.140802060605930E+00         -0.433634369875686E+00         -0.674140526381283E+00
  |   7         -0.113930194429003E+01          0.576630197998896E+00         -0.262238242247924E+00
  |   8         -0.384460337475242E+00          0.579173500676127E+00          0.196717216089971E+01
  |   9         -0.342575828739718E+00          0.218558883176424E+00         -0.220944569350820E+01
  |  10          0.112257611478404E+01         -0.122058923567016E+01          0.346826591440265E+00
  |  11          0.858255331270302E+00          0.138070525906683E+01         -0.525698427091036E+00
  |  12         -0.210019985376776E+00         -0.147841652552630E+00         -0.259317729370758E-01
  |  13         -0.638984781791401E+00         -0.120057053691343E+01          0.553171690535660E+00
  |  14          0.506083614323657E+00          0.480948393608109E+00         -0.141486383421934E+01
  |  15         -0.362863808634426E+00          0.536199259325601E+00          0.425364459306361E+00
  |  16         -0.546589799300619E+00         -0.705016590800590E+00          0.783571181065792E+00
 
  ------------------------------------ 
  Start decomposition of the XC Energy 
  ------------------------------------ 
  Hartree-Fock part   :          0.000000000 Ha              0.000000000 eV
  ------------------------------------ 
  X Energy            :        -45.139331117 Ha          -1228.303695103 eV
  C Energy GGA        :         -1.652900926 Ha            -44.977722648 eV
  Total XC Energy     :        -46.792232044 Ha          -1273.281417750 eV
  LDA X and C from self-consistent density 
  X Energy LDA        :        -40.674832892 Ha          -1106.818517285 eV
  C Energy LDA        :         -3.334839948 Ha            -90.745612070 eV
  ------------------------------------ 
  End decomposition of the XC Energy 
  ------------------------------------ 
  Performing Hirshfeld analysis of fragment charges and moments.
  ----------------------------------------------------------------------
  | Atom     1: O
  |   Hirshfeld charge        :     -0.11863690
  |   Free atom volume        :     23.95238533
  |   Hirshfeld volume        :     22.53481350
  |   Hirshfeld dipole vector :      0.01784981       0.02520418       0.02565220
  |   Hirshfeld dipole moment :      0.04014849
  |   Hirshfeld second moments:      0.05895710      -0.00633534      -0.01415618
  |                                 -0.00633534       0.02161630      -0.02528782
  |                                 -0.01415618      -0.02528782       0.05646810
  ----------------------------------------------------------------------
  | Atom     2: H
  |   Hirshfeld charge        :      0.07145590
  |   Free atom volume        :     10.44207651
  |   Hirshfeld volume        :     12.88147278
  |   Hirshfeld dipole vector :      0.01929448      -0.00117897       0.01919517
  |   Hirshfeld dipole moment :      0.02724191
  |   Hirshfeld second moments:     -0.02455124       0.01702049      -0.01254988
  |                                  0.01702049      -0.02839282       0.02088865
  |                                 -0.01254988       0.02088865      -0.01241081
  ----------------------------------------------------------------------
  | Atom     3: H
  |   Hirshfeld charge        :      0.09645292
  |   Free atom volume        :     10.44207651
  |   Hirshfeld volume        :     10.14202280
  |   Hirshfeld dipole vector :      0.01663653       0.00670790       0.00765885
  |   Hirshfeld dipole moment :      0.01950456
  |   Hirshfeld second moments:      0.01584139      -0.01268555      -0.00564257
  |                                 -0.01268555       0.03841863       0.00754044
  |                                 -0.00564257       0.00754044       0.04546929
  ----------------------------------------------------------------------
  | Atom     4: H
  |   Hirshfeld charge        :      0.13279164
  |   Free atom volume        :     10.44207651
  |   Hirshfeld volume        :     10.93046257
  |   Hirshfeld dipole vector :     -0.01046716       0.00181581       0.05433141
  |   Hirshfeld dipole moment :      0.05536028
  |   Hirshfeld second moments:      0.03161903       0.00360120      -0.00190085
  |                                  0.00360120       0.03467550       0.00171443
  |                                 -0.00190085       0.00171443       0.02131336
  ----------------------------------------------------------------------
  | Atom     5: O
  |   Hirshfeld charge        :     -0.22344882
  |   Free atom volume        :     23.95238533
  |   Hirshfeld volume        :     22.85504190
  |   Hirshfeld dipole vector :     -0.00852696      -0.02512089       0.03555497
  |   Hirshfeld dipole moment :      0.04436130
  |   Hirshfeld second moments:      0.04477739      -0.01693740       0.00562131
  |                                 -0.01693740       0.02123630       0.04662808
  |                                  0.00562131       0.04662808      -0.01266875
  ----------------------------------------------------------------------
  | Atom     6: H
  |   Hirshfeld charge        :      0.10688368
  |   Free atom volume        :     10.44207651
  |   Hirshfeld volume        :     10.17833968
  |   Hirshfeld dipole vector :     -0.00316478       0.04081097       0.05449975
  |   Hirshfeld dipole moment :      0.06815991
  |   Hirshfeld second moments:      0.05733835      -0.01336675      -0.00001423
  |                                 -0.01336675       0.04351815       0.01002183
  |                                 -0.00001423       0.01002183       0.01453789
  ----------------------------------------------------------------------
  | Atom     7: H
  |   Hirshfeld charge        :      0.11155741
  |   Free atom volume        :     10.44207651
  |   Hirshfeld volume        :     10.95431461
  |   Hirshfeld dipole vector :      0.05308633      -0.04033950       0.00449955
  |   Hirshfeld dipole moment :      0.06682574
  |   Hirshfeld second moments:      0.03185436       0.00172652      -0.00075988
  |                                  0.00172652       0.02971542       0.02375878
  |                                 -0.00075988       0.02375878       0.02684101
  ----------------------------------------------------------------------
  | Atom     8: O
  |   Hirshfeld charge        :     -0.36381046
  |   Free atom volume        :     23.95238533
  |   Hirshfeld volume        :     24.10539493
  |   Hirshfeld dipole vector :     -0.04414069       0.04508422       0.04804421
  |   Hirshfeld dipole moment :      0.07930468
  |   Hirshfeld second moments:     -0.06958205      -0.03968625       0.02864357
  |                                 -0.03968625      -0.07036620      -0.02563457
  |                                  0.02864357      -0.02563457       0.00753065
  ----------------------------------------------------------------------
  | Atom     9: H
  |   Hirshfeld charge        :      0.11036106
  |   Free atom volume        :     10.44207651
  |   Hirshfeld volume        :      7.88778933
  |   Hirshfeld dipole vector :      0.01109676      -0.00547896       0.12090100
  |   Hirshfeld dipole moment :      0.12153275
  |   Hirshfeld second moments:      0.07880840      -0.01800318       0.00870346
  |                                 -0.01800318       0.07674479      -0.00825185
  |                                  0.00870346      -0.00825185       0.08224979
  ----------------------------------------------------------------------
  | Atom    10: H
  |   Hirshfeld charge        :      0.06641787
  |   Free atom volume        :     10.44207651
  |   Hirshfeld volume        :      8.90383604
  |   Hirshfeld dipole vector :     -0.03202746       0.03652607       0.00849659
  |   Hirshfeld dipole moment :      0.04931637
  |   Hirshfeld second moments:      0.02653577       0.01386502      -0.01612080
  |                                  0.01386502       0.02863940       0.00637800
  |                                 -0.01612080       0.00637800       0.08156688
  ----------------------------------------------------------------------
  | Atom    11: O
  |   Hirshfeld charge        :     -0.25212266
  |   Free atom volume        :     23.95238533
  |   Hirshfeld volume        :     22.49351233
  |   Hirshfeld dipole vector :      0.02054973       0.02733102       0.03805151
  |   Hirshfeld dipole moment :      0.05115852
  |   Hirshfeld second moments:      0.02597479      -0.01881325      -0.00982363
  |                                 -0.01881325       0.02907260      -0.05547955
  |                                 -0.00982363      -0.05547955      -0.00452685
  ----------------------------------------------------------------------
  | Atom    12: H
  |   Hirshfeld charge        :      0.10930030
  |   Free atom volume        :     10.44207651
  |   Hirshfeld volume        :      9.18007015
  |   Hirshfeld dipole vector :      0.06331061      -0.02513703       0.04157783
  |   Hirshfeld dipole moment :      0.07980488
  |   Hirshfeld second moments:      0.05040174       0.00207187      -0.01094759
  |                                  0.00207187       0.07277914      -0.01300653
  |                                 -0.01094759      -0.01300653       0.04605400
  ----------------------------------------------------------------------
  | Atom    13: H
  |   Hirshfeld charge        :      0.12854735
  |   Free atom volume        :     10.44207651
  |   Hirshfeld volume        :      8.68398184
  |   Hirshfeld dipole vector :      0.02375475       0.09070586      -0.03552524
  |   Hirshfeld dipole moment :      0.10026906
  |   Hirshfeld second moments:      0.08122705      -0.01296131       0.00153021
  |                                 -0.01296131       0.06736922      -0.01967630
  |                                  0.00153021      -0.01967630       0.06643540
  ----------------------------------------------------------------------
  | Atom    14: O
  |   Hirshfeld charge        :     -0.23080900
  |   Free atom volume        :     23.95238533
  |   Hirshfeld volume        :     21.41633874
  |   Hirshfeld dipole vector :      0.02759103       0.02247576       0.01760736
  |   Hirshfeld dipole moment :      0.03970446
  |   Hirshfeld second moments:      0.03247850      -0.03140871      -0.03602894
  |                                 -0.03140871       0.04264134      -0.00880047
  |                                 -0.03602894      -0.00880047       0.05719892
  ----------------------------------------------------------------------
  | Atom    15: H
  |   Hirshfeld charge        :      0.14728173
  |   Free atom volume        :     10.44207651
  |   Hirshfeld volume        :      6.57558045
  |   Hirshfeld dipole vector :     -0.05635457       0.08065266       0.06482833
  |   Hirshfeld dipole moment :      0.11782785
  |   Hirshfeld second moments:      0.10920760      -0.00370678      -0.00928364
  |                                 -0.00370678       0.10940558      -0.01207288
  |                                 -0.00928364      -0.01207288       0.11755598
  ----------------------------------------------------------------------
  | Atom    16: H
  |   Hirshfeld charge        :      0.10770619
  |   Free atom volume        :     10.44207651
  |   Hirshfeld volume        :      8.42056355
  |   Hirshfeld dipole vector :      0.01934238       0.04023200      -0.02656458
  |   Hirshfeld dipole moment :      0.05194631
  |   Hirshfeld second moments:      0.06357080      -0.02390050       0.01285419
  |                                 -0.02390050       0.08280889       0.00530685
  |                                  0.01285419       0.00530685       0.04571286
  ----------------------------------------------------------------------


------------------------------------------------------------------------------
  Final output of selected total energy values:

  The following output summarizes some interesting total energy values
  at the end of a run (AFTER all relaxation, molecular dynamics, etc.).

  | Total energy of the DFT / Hartree-Fock s.c.f. calculation      :         -10429.108999533 eV
  | Final zero-broadening corrected energy (caution - metals only) :         -10429.111820481 eV
  | For reference only, the value of 1 Hartree used in FHI-aims is :             27.211384500 eV

  Before relying on these values, please be sure to understand exactly which
  total energy value is referred to by a given number. Different objects may
  all carry the same name 'total energy'. Definitions:

  Total energy of the DFT / Hartree-Fock s.c.f. calculation:
  | Note that this energy does not include ANY quantities calculated after the
  | s.c.f. cycle, in particular not ANY RPA, MP2, etc. many-body perturbation terms.

  Final zero-broadening corrected energy:
  | For metallic systems only, a broadening of the occupation numbers at the Fermi
  | level can be extrapolated back to zero broadening by an electron-gas inspired
  | formula. For all systems that are not real metals, this value can be
  | meaningless and should be avoided.

------------------------------------------------------------------------------

------------------------------------------------------------
          Leaving FHI-aims.
          Date     :  20150727, Time     :  125642.322

          Computational steps:
          | Number of self-consistency cycles          :           16

          Detailed time accounting                     :  max(cpu_time)    wall_clock(cpu1)
          | Total time                                 :       42.755 s          42.791 s
          | Preparation time                           :        0.170 s           0.575 s
          | Grid partitioning                          :        0.166 s           0.165 s
          | Preloading free-atom quantities on grid    :        0.014 s           0.013 s
          | Free-atom superposition energy             :        0.075 s           0.075 s
          | Total time for integrations                :       16.654 s          16.653 s
          | Total time for solution of K.-S. equations :        1.128 s           1.131 s
          | Total time for density & force components  :       15.845 s          15.840 s
          | Total time for mixing                      :        0.216 s           0.216 s
          | Total time for Hartree multipole update    :        0.080 s           0.084 s
          | Total time for Hartree multipole sum       :        7.633 s           7.632 s
          | Total time for total energy evaluation     :        0.008 s           0.020 s
          | Total time for scaled ZORA corrections     :        0.000 s           0.000 s
          | Total time for TS (2009) vdW correction    :        0.062 s           0.066 s

          Have a nice day.
------------------------------------------------------------
