  MPI-parallelism will be employed.
------------------------------------------------------------
          Invoking FHI-aims ...
          Version 081213
          Compiled on 2013/08/29 at 17:41:06 on host generoso.

          When using FHI-aims, please cite the following reference:

          Volker Blum, Ralf Gehrke, Felix Hanke, Paula Havu,
          Ville Havu, Xinguo Ren, Karsten Reuter, and Matthias Scheffler,
          'Ab Initio Molecular Simulations with Numeric Atom-Centered Orbitals: FHI-aims',
          Computer Physics Communications 180, 2175-2196 (2009)

          For any questions about FHI-aims, please visit the aimsclub website
          with its forums and wiki. Contributions to both the forums and the
          wiki are warmly encouraged - they are for you, and everyone is welcome there.

------------------------------------------------------------

  Date     :  20150727, Time     :  120310.661
  Time zero on CPU 1             :   0.439920000000000E-01  s.
  Internal wall clock time zero  :           207230590.661  s.

  Using        8 parallel tasks.
  Task        0 on host gen59 reporting.
  Task        1 on host gen59 reporting.
  Task        2 on host gen59 reporting.
  Task        3 on host gen59 reporting.
  Task        4 on host gen59 reporting.
  Task        5 on host gen59 reporting.
  Task        6 on host gen59 reporting.
  Task        7 on host gen59 reporting.

  Performing system and environment tests:
  | Environment variable OMP_NUM_THREADS correctly set to 1.
  | Checking for scalapack...
  | No scalapack compiled in.

  Obtaining array dimensions for all initial allocations:
  
  -----------------------------------------------------------------------
  Parsing control.in (first pass over file, find array dimensions only).
  The contents of control.in will be repeated verbatim below
  unless switched off by setting 'verbatim_writeout .false.' .
  in the first line of control.in .
  -----------------------------------------------------------------------
  
  #########################################################################################
  #
  #  Volker Blum, FHI 2008 : Test run input file control.in
  #
  #########################################################################################
  #
  #  Physical model
  #
    xc                 rpbe
    spin               none
    relativistic       atomic_zora scalar
    charge             0.
   vdw_correction_hirshfeld
  #
  #  SCF convergence
  #
    occupation_type    gaussian 0.01
    mixer              pulay
      n_max_pulay        10
      charge_mix_param   0.1
    sc_accuracy_rho    5E-5
    sc_accuracy_eev    5E-3
    sc_accuracy_etot   5E-6
    sc_iter_limit      3000
  #
  #  Eigenvalue solver
  #
    KS_method          lapack
      empty_states       8
      basis_threshold    0.e-5
  #
  #  Efficiency
  #
  #   all previous settings are now default, except stratmann still
  #   undecided. Continue to handle stratmann with care, if at all.
  #
  #  partition_type stratmann
    partition_type rho_r2
  #  hartree_partition_type stratmann
  #
  #  Oprions for large clusters (100's of atoms: memory saving / better scaling)
  #
  # for periodic systems:
  #
    density_update_method orbital
    packed_matrix_format none
  #  k_grid 6 6 6
  #  output k_eigenvalue 1
  #  distributed_spline_storage .true.
  #
  #  Relaxation
  #
  #  relax_geometry   bfgs 5.e-3
    sc_accuracy_forces 5.E-4
    final_forces_cleaned .true.
  #
  #  Output options
  #
  #  output mulliken
    output Hirshfeld
  #  output dipole
  
  #harmonic_length_scale 0.001
  
  ################################################################################
  #
  #  FHI-aims code project
  #  VB, Fritz-Haber Institut, 2007
  #
  #  Suggested "safe" defaults for H atom (to be pasted into control.in file)
  #  Basis constructed for a non-relativistic H2 molecule using the
  #  PW-LDA functional.
  #
  ################################################################################
    species        H
  #     global species definitions
      nucleus             1
      cut_pot             4.0  2.0  1.0
      cut_free_atom       finite 8.0
      logarithmic         0.00010000 100.00  1.0123
      basis_dep_cutoff    1d-4  # 1d-4 is safe default - please check 5d-4 if you wish!
      radial_base         24 7.0
      radial_multiplier   2
      angular_grids       specified
        division   0.2783  110
        division   0.3822  194
        division   0.5626  302
  #      division   0.5922  434
  #      division   0.6227  590
  #      division   0.7206  770
        outer_grid  302
      l_hartree           4
  ################################################################################
  #
  #  Definition of "minimal" basis
  #
  ################################################################################
  #     valence basis states
      valence      1  s   1.
  #     ion occupancy
      ion_occ      1  s   0.5
  ################################################################################
  #
  #  Suggested additional basis functions. For production calculations,
  #  uncomment them one after another (the most important basis functions are
  #  listed first).
  #
  ################################################################################
  #  "First tier" - improvements: -1014.90 meV to -62.69 meV
       hydro 2 s 2.1
       hydro 2 p 3.5
  #  "Second tier" - improvements: -12.89 meV to -1.83 meV
       hydro 1 s 0.85
       hydro 2 p 3.7
       hydro 2 s 1.2
       hydro 3 d 7
  #  "Third tier" - improvements: -0.25 meV to -0.12 meV
  #     hydro 4 f 11.2
  #     hydro 3 p 4.8
  #     hydro 4 d 9
  #     hydro 3 s 3.2
  
  ################################################################################
  #
  #  FHI-aims code project
  #  VB, Fritz-Haber Institut, 2007
  #
  #  Suggested "safe" defaults for O atom (to be pasted into control.in file)
  #  All values have been tested for a non-relativistic, non-spinpolarized O2
  #  molecule using the PW-LDA functional. Validity for PBE is expected.
  #
  #  Constructed for dimers: 1.0 A, 1.208 A, 1.5 A, 2.0 A, 3.0 A
  #
  ################################################################################
    species        O
  #     global species definitions
      nucleus             8
      mass                15.9994
      l_hartree           4
      cut_pot             4.0  2.0  1.0
      cut_free_atom       finite 8.0
      basis_dep_cutoff    1d-4  # 1d-4 is safe default - please check 5d-4 if you wish!
      logarithmic         0.00010000 100.00  1.0123
      radial_base         36 7.0
      radial_multiplier   2
       angular_grids specified
        division   0.4087  110
        division   0.5181  194
        division   0.6184  302
  #      division   0.7315  434
  #      division   0.7934  590
  #      division   0.9656  770
  #      division   1.4041  974
  #      outer_grid 974
        outer_grid 302
  ################################################################################
  #
  #  Definition of "minimal" basis
  #
  ################################################################################
  #     valence basis states
      valence      2  s   2.
      valence      2  p   4.
  #     ion occupancy
      ion_occ      2  s   1.
      ion_occ      2  p   3.
  ################################################################################
  #
  #  Suggested additional basis functions. For production calculations,
  #  uncomment them one after another (the most important basis functions are
  #  listed first).
  #
  ################################################################################
  #  "First tier" - improvements: -699.05 meV to -159.38 meV
       hydro 2 p 1.8
       hydro 3 d 7.6
       hydro 3 s 6.4
  #  "Second tier" - improvements: -49.91 meV to -5.39 meV
       hydro 4 f 11.6
       hydro 3 p 6.2
       hydro 3 d 5.6
       hydro 5 g 17.6
       hydro 1 s 0.75
  #  "Third tier" - improvements: -2.83 meV to -0.50 meV
  #     ionic 2 p auto
  #     hydro 4 f 10.8
  #     hydro 4 d 4.7
  #     hydro 2 s 6.8
  #  "Fourth tier" - improvements: -0.40 meV to -0.12 meV
  #     hydro 3 p 5
  #     hydro 3 s 3.3
  #     hydro 5 g 15.6
  #     hydro 4 f 17.6
  #     hydro 4 d 14
  # Further basis functions - -0.08 meV and below
  #     hydro 3 s 2.1
  #     hydro 4 d 11.6
  #     hydro 3 p 16
  #     hydro 2 s 17.2
  
  
  -----------------------------------------------------------------------
  Completed first pass over input file control.in .
  -----------------------------------------------------------------------
  
  
  -----------------------------------------------------------------------
  Parsing geometry.in (first pass over file, find array dimensions only).
  The contents of geometry.in will be repeated verbatim below
  unless switched off by setting 'verbatim_writeout .false.' .
  in the first line of geometry.in .
  -----------------------------------------------------------------------
  
  atom      -4.053030000      0.065001000     -1.525160000  O
  atom      -4.566710000      0.974813000     -1.912820000  H
  atom      -3.067820000      0.330172000     -1.477310000  H
  atom      -4.370360000     -0.049164000     -0.572274000  H
  atom      -4.581760000     -0.256435000      0.939478000  O
  atom      -4.349860000      0.471090000      1.504340000  H
  atom      -5.393870000     -0.726611000      1.228070000  H
  atom      -5.293160000      2.192130000     -2.328800000  O
  atom      -4.829300000      2.988660000     -1.973850000  H
  atom      -5.428570000      2.328640000     -3.235170000  H
  atom      -3.818880000      2.024990000      2.187990000  O
  atom      -3.690880000      1.961360000      3.202150000  H
  atom      -4.546490000      2.751300000      2.045370000  H
  atom      -4.066610000      4.258280000     -0.900064000  O
  atom      -3.224110000      3.876870000     -0.569443000  H
  atom      -3.737450000      5.116530000     -1.322720000  H
  atom      -5.628340000      3.730740000      1.385610000  O
  atom      -6.090650000      4.418470000      1.860350000  H
  atom      -5.158540000      4.200260000      0.615875000  H
  
  -----------------------------------------------------------------------
  Completed first pass over input file geometry.in .
  -----------------------------------------------------------------------
  
 
  Basic array size parameters: 
  | Number of species                 :        2
  | Number of atoms                   :       19
  | Max. basis fn. angular momentum   :        4
  | Max. atomic/ionic basis occupied n:        2
  | Max. number of basis fn. types    :        2
  | Max. radial fns per species/type  :        8
  | Max. logarithmic grid size        :     1301
  | Max. radial integration grid size :       73
  | Max. angular integration grid size:      302
  | Max. angular grid division number :        8
  | Radial grid for Hartree potential :     1301
  | Number of spin channels           :        1

------------------------------------------------------------
          Reading file control.in.
------------------------------------------------------------
  XC: Using RPBE gradient-corrected functionals.
  Spin treatment: No spin polarisation.
  Scalar relativistic treatment of kinetic energy: on-site free-atom approximation to ZORA.
  Charge =   0.000000E+00: Neutral system requested explicitly.
  Using non-empirical van der Waals correction (Hirshfeld partitioning):
  Occupation type: Gaussian broadening, width =   0.100000E-01 eV.
  Using pulay charge density mixing.
  Pulay mixing - number of memorized iterations:   10
  Charge density mixing - mixing parameter:     0.1000
  Convergence accuracy of self-consistent charge density: 0.5000E-04
  Convergence accuracy of sum of eigenvalues: 0.5000E-02
  Convergence accuracy of total energy: 0.5000E-05
  Maximum number of s.-c. iterations  :  3000
  Kohn-Sham eigenvalues and eigenfunctions calculated by lapack diagonalisation (D&C).
  Number of empty states per atom:        8
  Threshold for basis singularities: 0.0000E+00
  Partition function in integrals calculations: rho / r^2
 Using packed matrix format           0
  Convergence accuracy of forces: 0.5000E-03
  Cleaning forces before final output.
  Hirshfeld charge analysis will be performed.
 
  Reading configuration options for species H                   .
  | Found nuclear charge :   1.0000
  | Found cutoff potl. onset [A], width [A], scale factor :    4.00000    2.00000    1.00000
  | Found cutoff specification for free atom: Cutoff potential begins at    8.00000 A.
  | Found logarithmic grid data [bohr] : 0.1000E-03 0.1000E+03 0.1012E+01
  | Threshold for basis-dependent cutoff potential is   0.100000E-03
  | Found data for basic radial integration grid :    24 points, outermost radius =    7.000 A
  | Found multiplier for basic radial grid :   2
  | Found angular grid specification: user-specified.
  | Specified grid contains     4 separate shells.
  | Check grid settings after all constraints further below.
  | Found l_max for Hartree potential  :   4
  | Found free-atom valence shell :  1 s   1.000
  | No ionic wave fns used. Skipping ion_occ.
  | Found hydrogenic basis function :  2 s   2.100
  | Found hydrogenic basis function :  2 p   3.500
  | Found hydrogenic basis function :  1 s   0.850
  | Found hydrogenic basis function :  2 p   3.700
  | Found hydrogenic basis function :  2 s   1.200
  | Found hydrogenic basis function :  3 d   7.000
  Species H                   : Missing cutoff potential type.
  Defaulting to exp(1/x)/(1-x)^2 type cutoff potential.
  Species H : On-site basis accuracy parameter (for Gram-Schmidt orthonormalisation) not specified.
  Using default value basis_acc =  0.1000000E-03.
  Species H                   : Using default innermost maximum threshold i_radial=  2 for radial functions.
  Species H                   : Basic radial grid will be enhanced according to radial_multiplier =   2, to contain    49 grid points.
 
  Reading configuration options for species O                   .
  | Found nuclear charge :   8.0000
  | Found atomic mass :    15.9994000000000      amu
  | Found l_max for Hartree potential  :   4
  | Found cutoff potl. onset [A], width [A], scale factor :    4.00000    2.00000    1.00000
  | Found cutoff specification for free atom: Cutoff potential begins at    8.00000 A.
  | Threshold for basis-dependent cutoff potential is   0.100000E-03
  | Found logarithmic grid data [bohr] : 0.1000E-03 0.1000E+03 0.1012E+01
  | Found data for basic radial integration grid :    36 points, outermost radius =    7.000 A
  | Found multiplier for basic radial grid :   2
  | Found angular grid specification: user-specified.
  | Specified grid contains     4 separate shells.
  | Check grid settings after all constraints further below.
  | Found free-atom valence shell :  2 s   2.000
  | Found free-atom valence shell :  2 p   4.000
  | No ionic wave fns used. Skipping ion_occ.
  | No ionic wave fns used. Skipping ion_occ.
  | Found hydrogenic basis function :  2 p   1.800
  | Found hydrogenic basis function :  3 d   7.600
  | Found hydrogenic basis function :  3 s   6.400
  | Found hydrogenic basis function :  4 f  11.600
  | Found hydrogenic basis function :  3 p   6.200
  | Found hydrogenic basis function :  3 d   5.600
  | Found hydrogenic basis function :  5 g  17.600
  | Found hydrogenic basis function :  1 s   0.750
  Species O                   : Missing cutoff potential type.
  Defaulting to exp(1/x)/(1-x)^2 type cutoff potential.
  Species O : On-site basis accuracy parameter (for Gram-Schmidt orthonormalisation) not specified.
  Using default value basis_acc =  0.1000000E-03.
  Species O                   : Using default innermost maximum threshold i_radial=  2 for radial functions.
  Species O                   : Basic radial grid will be enhanced according to radial_multiplier =   2, to contain    73 grid points.
 
  Finished reading input file 'control.in'. Consistency checks are next.
 
  Target number of points in a grid batch is not set. Defaulting to  100
  Method for grid partitioning is not set. Defaulting to parallel hash+maxmin partitioning.
  Batch size limit is not set. Defaulting to    200
  By default, will store active basis functions for each batch.
  If in need of memory, prune_basis_once .false. can be used to disable this option.
  communication_type for Hartree potential was not specified.
  Defaulting to calc_hartree .
  Pulay mixer: Number of initial linear mixing iterations not set.
  Defaulting to    0 iterations.
  Work space size for distributed Hartree potential not set.
  Defaulting to   0.200000E+03 MB.
  Algorithm-dependent basis array size parameters:
  | n_max_pulay                         :       10
  Geometry relaxation not requested: no relaxation will be performed.
  Handling of forces: Unphysical translation and rotation will be removed from forces.
  No accuracy limit for integral partition fn. given. Defaulting to 0.1000E-14.
  No threshold value for u(r) in integrations given. Defaulting to 0.1000E-05.
  No accuracy for occupation numbers given. Defaulting to 0.1000E-07.
  No threshold value for occupation numbers given. Defaulting to 0.0000E+00.
  No accuracy for fermi level given. Defaulting to 0.1000E-19.
  Maximum # of iterations to find E_F not set. Defaulting to  200.
  Will not use alltoall communication since running on < 1024 CPUs.
  Partitioning for Hartree potential was not defined. Using partition_type for integrals.
  | Reporting present value of keyword multip_moments_threshold  :       0.10000000E-09
  | This value may affect high angular momentum components of the Hartree potential in periodic systems.
  No q(lm)/r^(l+1) cutoff set for long-range Hartree potential.
  | Using default value of  0.100000E-09 .
  | Verify using the multipole_threshold keyword.
  Defaulting to new monopole extrapolation.
  Density update method: Loop over occupied states selected for charge density update.
------------------------------------------------------------


------------------------------------------------------------
          Reading geometry description geometry.in.
------------------------------------------------------------
  Input structure read successfully.
  The structure contains       19 atoms,  and a total of         61.000 electrons.

  Input geometry:
  | No unit cell requested.
  | Atomic structure:
  |       Atom                x [A]            y [A]            z [A]
  |    1: Species O             -4.053030         0.065001        -1.525160
  |    2: Species H             -4.566710         0.974813        -1.912820
  |    3: Species H             -3.067820         0.330172        -1.477310
  |    4: Species H             -4.370360        -0.049164        -0.572274
  |    5: Species O             -4.581760        -0.256435         0.939478
  |    6: Species H             -4.349860         0.471090         1.504340
  |    7: Species H             -5.393870        -0.726611         1.228070
  |    8: Species O             -5.293160         2.192130        -2.328800
  |    9: Species H             -4.829300         2.988660        -1.973850
  |   10: Species H             -5.428570         2.328640        -3.235170
  |   11: Species O             -3.818880         2.024990         2.187990
  |   12: Species H             -3.690880         1.961360         3.202150
  |   13: Species H             -4.546490         2.751300         2.045370
  |   14: Species O             -4.066610         4.258280        -0.900064
  |   15: Species H             -3.224110         3.876870        -0.569443
  |   16: Species H             -3.737450         5.116530        -1.322720
  |   17: Species O             -5.628340         3.730740         1.385610
  |   18: Species H             -6.090650         4.418470         1.860350
  |   19: Species H             -5.158540         4.200260         0.615875
  |

  | The smallest distance between any two atoms is         0.92654057 AA.
  |
  | The first atom of this pair is atom number                      8 .
  | The second atom of this pair is atom number                    10 .

  Structure-dependent array size parameters: 
  | Maximum number of distinct radial functions  :       18
  | Maximum number of basis functions            :      429
  | Number of Kohn-Sham states (occupied + empty):      107
------------------------------------------------------------

------------------------------------------------------------
          Preparing all fixed parts of the calculation.
------------------------------------------------------------
  Determining machine precision:
    2.225073858507201E-308
  Setting up grids for atomic and cluster calculations.

  Creating wave function, potential, and density for free atoms.

  Species: H

  List of occupied orbitals and eigenvalues:
    n    l              occ      energy [Ha]    energy [eV]
    1    0           1.0000        -0.241408        -6.5691


  Species: O

  List of occupied orbitals and eigenvalues:
    n    l              occ      energy [Ha]    energy [eV]
    1    0           2.0000       -18.944147      -515.4965
    2    0           2.0000        -0.883529       -24.0421
    2    1           4.0000        -0.330176        -8.9845

  Creating fixed part of basis set: Ionic, confined, hydrogenic.
 
  H                    hydrogenic:
 
  List of hydrogenic basis orbitals: 
    n    l      effective z      eigenvalue [eV]  inner max. [A]     outer max. [A]     outer radius [A]   
    2    0         2.100000       -14.9965           0.193241           1.317192           5.372934
    2    1         3.500000       -41.6672           0.602363           0.602363           4.056010
    1    0         0.850000        -9.8292           0.624864           0.624864           5.372934
    2    1         3.700000       -46.5653           0.573616           0.573616           3.909951
    2    0         1.200000        -4.5995           0.334977           2.228160           5.505921
    3    2         7.000000       -74.0753           0.680692           0.680692           3.769152
 
 
  O                    hydrogenic:
 
  List of hydrogenic basis orbitals: 
    n    l      effective z      eigenvalue [eV]  inner max. [A]     outer max. [A]     outer radius [A]   
    2    1         1.800000       -11.0118           1.178546           1.178546           5.432516
    3    2         7.600000       -87.3182           0.624117           0.624117           3.541422
    3    0         6.400000       -61.9209           0.061166           1.081887           4.306510
    4    3        11.600000      -114.4238           0.731621           0.731621           3.584982
    3    1         6.200000       -58.1113           0.255677           1.030255           4.306510
    3    2         5.600000       -47.4081           0.847222           0.847222           4.413102
    5    4        17.600000      -168.5799           0.749730           0.749730           3.372413
    1    0         0.750000        -7.6499           0.705275           0.705275           5.366508
 

  Adding cutoff potential to free-atom effective potential.
  Creating atomic-like basis functions for current effective potential.

  Species H                   :

  List of atomic basis orbitals and eigenvalues:
    n    l      energy [Ha]    energy [eV]    outer radius [A]
    1    0        -0.241374        -6.5681       5.372934


  Species O                   :

  List of atomic basis orbitals and eigenvalues:
    n    l      energy [Ha]    energy [eV]    outer radius [A]
    1    0       -18.944147      -515.4965       1.415745
    2    0        -0.883529       -24.0421       5.048305
    2    1        -0.330173        -8.9845       5.301302

  Assembling full basis from fixed parts.
  | Species H :   atomic orbital   1 s accepted.
  | Species H :    hydro orbital   2 s accepted.
  | Species H :    hydro orbital   1 s accepted.
  | Species H :    hydro orbital   2 s accepted.
  | Species H :    hydro orbital   2 p accepted.
  | Species H :    hydro orbital   2 p accepted.
  | Species H :    hydro orbital   3 d accepted.
  | Species O :   atomic orbital   1 s accepted.
  | Species O :    hydro orbital   3 s accepted.
  | Species O :   atomic orbital   2 s accepted.
  | Species O :    hydro orbital   1 s accepted.
  | Species O :    hydro orbital   3 p accepted.
  | Species O :   atomic orbital   2 p accepted.
  | Species O :    hydro orbital   2 p accepted.
  | Species O :    hydro orbital   3 d accepted.
  | Species O :    hydro orbital   3 d accepted.
  | Species O :    hydro orbital   4 f accepted.
  | Species O :    hydro orbital   5 g accepted.
 
  Basis size parameters after reduction:
  | Total number of radial functions:       18
  | Total number of basis functions :      429
 
  Testing on-site integration grid accuracy.
  |  Species  Function  <phi|h_atom|phi> (log., in eV)  <phi|h_atom|phi> (rad., in eV)
           1        1                 -6.5683835025                 -6.5684759159
           1        2                 13.3711789951                 13.3708738703
           1        3                 23.6590910787                 23.6532055418
           1        4                 16.2963827186                 16.1870710655 ***
           1        5                 28.7627214838                 28.7627215090
           1        6                 59.5965249172                 59.5965950857
           1        7                 60.2220506392                 60.2220503827
           2        8               -515.4964576505               -515.4964530710
           2        9                 15.3030791347                 15.3030722972
           2       10                -21.7296094581                -21.7296135470
           2       11                 14.2969371730                 14.2969701621
           2       12                 21.0679693190                 21.0679697493
           2       13                 -2.3833606469                 -2.3833613176
           2       14                 13.7067136422                 13.7066766629
           2       15                 45.8013116808                 45.8013116965
           2       16                 52.2309815402                 52.2309831494
           2       17                 85.4120732416                 85.4120732763
           2       18                142.1019167745                142.1019167817
 * Note: Onsite integrals marked "***" above are less accurate than
 * onsite_accuracy_threshold =    0.03000 eV. Usually, this is harmless.
 * When in doubt, tighten the "radial" and/or "radial_multiplier" flags to check.

  Preparing densities etc. for the partition functions (integrals / Hartree potential).

  Preparations completed.
  max(cpu_time)          :      0.168 s.
  Wall clock time (cpu1) :      0.595 s.
------------------------------------------------------------

------------------------------------------------------------
          Begin self-consistency loop: Initialization.

          Date     :  20150727, Time     :  120311.308
------------------------------------------------------------

  Initializing index lists of integration centers etc. from given atomic structure:
  | Number of centers in hartree potential         :        19
  | Number of centers in hartree multipole         :        19
  | Number of centers in electron density summation:        19
  | Number of centers in basis integrals           :        19
  | Number of centers in integrals                 :        19
  Partitioning the integration grid into batches with parallel hashing+maxmin method.
  | Number of batches:     2538
  | Maximal batch size:     200
  | Minimal batch size:      49
  | Average batch size:      97.575
  | Standard deviation of batch sizes:      29.560

  Integration load balanced across     8 MPI tasks.
  Work distribution over tasks is as follows:
  Task     0 has      31048 integration points.
  Task     1 has      30899 integration points.
  Task     2 has      30902 integration points.
  Task     3 has      30906 integration points.
  Task     4 has      31052 integration points.
  Task     5 has      31012 integration points.
  Task     6 has      30927 integration points.
  Task     7 has      30900 integration points.
  Initializing partition tables, free-atom densities, potentials, etc. across the integration grid (initialize_grid_storage).
  | Net number of integration points:   247646
  | of which are non-zero points    :   247086
  Obtaining max. number of non-zero basis functions in each batch (get_n_compute_maxes).
  | Maximal number of non-zero basis functions:      424 in task     0
  | Maximal number of non-zero basis functions:      425 in task     1
  | Maximal number of non-zero basis functions:      424 in task     2
  | Maximal number of non-zero basis functions:      425 in task     3
  | Maximal number of non-zero basis functions:      425 in task     4
  | Maximal number of non-zero basis functions:      425 in task     5
  | Maximal number of non-zero basis functions:      425 in task     6
  | Maximal number of non-zero basis functions:      425 in task     7
  Integrating Hamiltonian matrix: batch-based integration.
  Time summed over all CPUs for integration: real work       12.199 s, elapsed       12.378 s
  Integrating overlap matrix.
  Time summed over all CPUs for integration: real work        6.658 s, elapsed        6.727 s

  Updating Kohn-Sham eigenvalues, eigenvectors, occupation numbers, and Fermi level.
  Solving generalized eigenproblem
  Updating Kohn-Sham eigenvalues and eigenfunctions.
  Transforming overlap matrix and checking for singularities.
  Overlap matrix is nonsingular:
  | Lowest eigenvalue:  0.180279E-03
  Solving real generalised eigenvalue problem by standard LAPACK (fast)
  Determining occupation numbers for Kohn-Sham eigenstates.
  | Chemical potential (Fermi level) in eV                 : -.27369891E+01
  | Error in electron count due to remaining E_F inaccuracy: -.97997273E-08
  | Maximum occupation number of highest empty state:  0.00E+00

  Writing Kohn-Sham eigenvalues.

  State    Occupation    Eigenvalue [Ha]    Eigenvalue [eV]
      1       2.00000         -19.065137         -518.78878
      2       2.00000         -19.064974         -518.78433
      3       2.00000         -19.059274         -518.62924
      4       2.00000         -19.050644         -518.39441
      5       2.00000         -19.045358         -518.25056
      6       2.00000         -19.032269         -517.89439
      7       2.00000          -1.130455          -30.76125
      8       2.00000          -1.117407          -30.40619
      9       2.00000          -1.104405          -30.05240
     10       2.00000          -1.100473          -29.94539
     11       2.00000          -1.088953          -29.63193
     12       2.00000          -1.063883          -28.94973
     13       2.00000          -0.655054          -17.82492
     14       2.00000          -0.653999          -17.79622
     15       2.00000          -0.641156          -17.44675
     16       2.00000          -0.632176          -17.20239
     17       2.00000          -0.621145          -16.90221
     18       2.00000          -0.607889          -16.54150
     19       2.00000          -0.603671          -16.42671
     20       2.00000          -0.537290          -14.62041
     21       2.00000          -0.523998          -14.25870
     22       2.00000          -0.515958          -14.03993
     23       2.00000          -0.504560          -13.72978
     24       2.00000          -0.489359          -13.31613
     25       2.00000          -0.482630          -13.13303
     26       2.00000          -0.453025          -12.32743
     27       2.00000          -0.446573          -12.15188
     28       2.00000          -0.440600          -11.98934
     29       2.00000          -0.437558          -11.90655
     30       2.00000          -0.424867          -11.56122
     31       1.00000          -0.100583           -2.73699
     32       0.00000          -0.069860           -1.90099
     33       0.00000          -0.067613           -1.83986
     34       0.00000          -0.041156           -1.11991
     35       0.00000          -0.039587           -1.07721
     36       0.00000          -0.036385           -0.99009
     37       0.00000          -0.002840           -0.07727
     38       0.00000           0.024951            0.67896
     39       0.00000           0.032826            0.89324
     40       0.00000           0.037367            1.01681
     41       0.00000           0.045790            1.24601
     42       0.00000           0.050827            1.38306
     43       0.00000           0.064406            1.75258
     44       0.00000           0.067664            1.84123
     45       0.00000           0.075781            2.06209
     46       0.00000           0.084998            2.31291
     47       0.00000           0.090697            2.46798
     48       0.00000           0.093788            2.55209
     49       0.00000           0.102273            2.78298
     50       0.00000           0.109185            2.97107
     51       0.00000           0.112320            3.05638
     52       0.00000           0.117033            3.18464
     53       0.00000           0.121803            3.31444
     54       0.00000           0.133520            3.63327
     55       0.00000           0.136854            3.72399
     56       0.00000           0.141137            3.84054
     57       0.00000           0.151537            4.12354
     58       0.00000           0.168120            4.57479
     59       0.00000           0.175595            4.77819
     60       0.00000           0.179666            4.88896
     61       0.00000           0.187634            5.10578
     62       0.00000           0.194060            5.28064
     63       0.00000           0.219307            5.96765
     64       0.00000           0.225065            6.12434
     65       0.00000           0.233831            6.36288
     66       0.00000           0.241364            6.56785
     67       0.00000           0.262039            7.13044
     68       0.00000           0.272577            7.41720
     69       0.00000           0.293670            7.99118
     70       0.00000           0.301215            8.19647
     71       0.00000           0.304249            8.27904
     72       0.00000           0.313096            8.51977
     73       0.00000           0.325745            8.86396
     74       0.00000           0.332090            9.03663
     75       0.00000           0.353160            9.60996
     76       0.00000           0.366076            9.96142
     77       0.00000           0.371344           10.10477
     78       0.00000           0.378272           10.29331
     79       0.00000           0.390141           10.61628
     80       0.00000           0.399434           10.86915
     81       0.00000           0.407448           11.08723
     82       0.00000           0.422449           11.49541
     83       0.00000           0.430529           11.71530
     84       0.00000           0.441547           12.01510
     85       0.00000           0.449788           12.23934
     86       0.00000           0.459306           12.49836
     87       0.00000           0.471461           12.82911
     88       0.00000           0.485213           13.20333
     89       0.00000           0.499352           13.58807
     90       0.00000           0.513517           13.97352
     91       0.00000           0.523143           14.23545
     92       0.00000           0.542909           14.77329
     93       0.00000           0.567091           15.43132
     94       0.00000           0.568381           15.46643
     95       0.00000           0.593764           16.15713
     96       0.00000           0.600052           16.32825
     97       0.00000           0.627439           17.07349
     98       0.00000           0.643934           17.52234
     99       0.00000           0.672605           18.30251
    100       0.00000           0.682854           18.58141
    101       0.00000           0.718746           19.55808
    102       0.00000           0.744160           20.24961
    103       0.00000           0.753953           20.51610
    104       0.00000           0.761443           20.71992
    105       0.00000           0.780361           21.23469
    106       0.00000           0.785041           21.36205
    107       0.00000           0.809919           22.03902

  Highest occupied state (VBM) at    -11.56122051 eV
  | Occupation number:      2.00000000

  Lowest unoccupied state (CBM) at    -2.73698909 eV
  | Occupation number:      0.99999999

  Overall HOMO-LUMO gap:      8.82423142 eV.
  Calculating total energy contributions from superposition of free atom densities.

  Total energy components:
  | Sum of eigenvalues            :        -261.29006363 Ha       -7110.06438742 eV
  | XC energy correction          :         -55.10874411 Ha       -1499.58522535 eV
  | XC potential correction       :          70.44129201 Ha        1916.80508148 eV
  | Free-atom electrostatic energy:        -214.19732273 Ha       -5828.60570773 eV
  | Hartree energy correction     :           0.00000000 Ha           0.00000000 eV
  | van der Waals energy corr.    :           0.00000000 Ha           0.00000000 eV
  | Entropy correction            :          -0.00010367 Ha          -0.00282095 eV
  | ---------------------------
  | Total energy                  :        -460.15483847 Ha      -12521.45023902 eV
  | Total energy, T -> 0          :        -460.15494213 Ha      -12521.45305997 eV  <-- do not rely on this value for anything but (periodic) metals
  | Electronic free energy        :        -460.15504580 Ha      -12521.45588092 eV

  Derived energy quantities:
  | Kinetic energy                :         455.80463991 Ha       12403.07531359 eV
  | Electrostatic energy          :        -860.85073427 Ha      -23424.94032727 eV
  | Energy correction for multipole
  | error in Hartree potential    :           0.00000000 Ha           0.00000000 eV
  | Sum of eigenvalues per atom                           :        -374.21391513 eV
  | Total energy (T->0) per atom                          :        -659.02384526 eV  <-- do not rely on this value for anything but (periodic) metals
  | Electronic free energy per atom                       :        -659.02399373 eV
  Initialize hartree_potential_storage
  Max. number of atoms included in rho_multipole:           19

  End scf initialization - timings             :  max(cpu_time)    wall_clock(cpu1)
  | Time for scf. initialization               :        3.220 s           3.219 s
  | Boundary condition initialization          :        0.000 s           0.000 s
  | Integration                                :        2.395 s           2.395 s
  | Solution of K.-S. eqns.                    :        0.336 s           0.336 s
  | Grid partitioning                          :        0.163 s           0.163 s
  | Preloading free-atom quantities on grid    :        0.014 s           0.013 s
  | Free-atom superposition energy             :        0.099 s           0.099 s
  | Total energy evaluation                    :        0.000 s           0.000 s
------------------------------------------------------------

------------------------------------------------------------
          Begin self-consistency iteration #    1

  Date     :  20150727, Time     :  120314.527
------------------------------------------------------------
  Evaluating new KS density.
  Integration grid: deviation in total charge (<rho> - N_e) =  -9.799699E-09
  Pulay mixing of updated and previous charge densities.

  Evaluating partitioned Hartree potential by multipole expansion.
  | Analytical far-field extrapolation by fixed multipoles:
  | Hartree multipole sum: apparent total charge =  -0.130879E-05
  Summing up the Hartree potential.
  Time summed over all CPUs for potential: real work        4.067 s, elapsed        4.089 s
  | RMS charge density error from multipole expansion :   0.183528E-02

  Integrating Hamiltonian matrix: batch-based integration.
  Time summed over all CPUs for integration: real work       12.181 s, elapsed       12.346 s

  Updating Kohn-Sham eigenvalues, eigenvectors, occupation numbers, and Fermi level.
  Solving generalized eigenproblem
  Updating Kohn-Sham eigenvalues and eigenfunctions.
  Solving real generalised eigenvalue problem by standard LAPACK (fast)
  Determining occupation numbers for Kohn-Sham eigenstates.
  | Chemical potential (Fermi level) in eV                 : -.24889872E+01
  | Error in electron count due to remaining E_F inaccuracy: 0.78756983E-08
  | Maximum occupation number of highest empty state:  0.00E+00

  Writing Kohn-Sham eigenvalues.

  State    Occupation    Eigenvalue [Ha]    Eigenvalue [eV]
      1       2.00000         -19.012135         -517.34653
      2       2.00000         -18.993571         -516.84137
      3       2.00000         -18.983497         -516.56724
      4       2.00000         -18.974842         -516.33173
      5       2.00000         -18.973671         -516.29987
      6       2.00000         -18.953129         -515.74088
      7       2.00000          -1.102407          -29.99801
      8       2.00000          -1.083723          -29.48959
      9       2.00000          -1.068117          -29.06495
     10       2.00000          -1.061851          -28.89442
     11       2.00000          -1.053009          -28.65382
     12       2.00000          -1.021836          -27.80556
     13       2.00000          -0.624155          -16.98413
     14       2.00000          -0.621890          -16.92248
     15       2.00000          -0.617421          -16.80087
     16       2.00000          -0.598926          -16.29760
     17       2.00000          -0.597643          -16.26270
     18       2.00000          -0.577329          -15.70993
     19       2.00000          -0.567874          -15.45263
     20       2.00000          -0.505562          -13.75704
     21       2.00000          -0.487018          -13.25242
     22       2.00000          -0.480360          -13.07125
     23       2.00000          -0.468841          -12.75783
     24       2.00000          -0.456277          -12.41592
     25       2.00000          -0.445122          -12.11239
     26       2.00000          -0.418037          -11.37537
     27       2.00000          -0.407888          -11.09919
     28       2.00000          -0.403046          -10.96744
     29       2.00000          -0.396920          -10.80073
     30       2.00000          -0.381727          -10.38733
     31       1.00000          -0.091469           -2.48899
     32       0.00000          -0.061549           -1.67483
     33       0.00000          -0.058533           -1.59277
     34       0.00000          -0.034378           -0.93548
     35       0.00000          -0.032009           -0.87101
     36       0.00000          -0.027803           -0.75654
     37       0.00000           0.005487            0.14932
     38       0.00000           0.034141            0.92903
     39       0.00000           0.039995            1.08833
     40       0.00000           0.046831            1.27434
     41       0.00000           0.055983            1.52339
     42       0.00000           0.060701            1.65175
     43       0.00000           0.068996            1.87748
     44       0.00000           0.077497            2.10881
     45       0.00000           0.085667            2.33112
     46       0.00000           0.092915            2.52835
     47       0.00000           0.099465            2.70659
     48       0.00000           0.106158            2.88872
     49       0.00000           0.112414            3.05893
     50       0.00000           0.120855            3.28864
     51       0.00000           0.122611            3.33641
     52       0.00000           0.128166            3.48758
     53       0.00000           0.132107            3.59481
     54       0.00000           0.142325            3.87287
     55       0.00000           0.147427            4.01168
     56       0.00000           0.149903            4.07907
     57       0.00000           0.173284            4.71530
     58       0.00000           0.178458            4.85608
     59       0.00000           0.184483            5.02004
     60       0.00000           0.188929            5.14101
     61       0.00000           0.196574            5.34905
     62       0.00000           0.203941            5.54951
     63       0.00000           0.227941            6.20260
     64       0.00000           0.233413            6.35150
     65       0.00000           0.242352            6.59472
     66       0.00000           0.251862            6.85351
     67       0.00000           0.270606            7.36356
     68       0.00000           0.280609            7.63575
     69       0.00000           0.301621            8.20753
     70       0.00000           0.307484            8.36708
     71       0.00000           0.312609            8.50652
     72       0.00000           0.321387            8.74539
     73       0.00000           0.334110            9.09161
     74       0.00000           0.340261            9.25896
     75       0.00000           0.362150            9.85461
     76       0.00000           0.376502           10.24513
     77       0.00000           0.380903           10.36491
     78       0.00000           0.386137           10.50732
     79       0.00000           0.399021           10.85792
     80       0.00000           0.408062           11.10393
     81       0.00000           0.416288           11.32777
     82       0.00000           0.430710           11.72021
     83       0.00000           0.439577           11.96149
     84       0.00000           0.449048           12.21921
     85       0.00000           0.459311           12.49848
     86       0.00000           0.466319           12.68919
     87       0.00000           0.480278           13.06902
     88       0.00000           0.495468           13.48236
     89       0.00000           0.512357           13.94193
     90       0.00000           0.523970           14.25794
     91       0.00000           0.534655           14.54869
     92       0.00000           0.554435           15.08695
     93       0.00000           0.577840           15.72384
     94       0.00000           0.581106           15.81270
     95       0.00000           0.605658           16.48080
     96       0.00000           0.610723           16.61862
     97       0.00000           0.638687           17.37957
     98       0.00000           0.655792           17.84500
     99       0.00000           0.684488           18.62587
    100       0.00000           0.695067           18.91373
    101       0.00000           0.732525           19.93303
    102       0.00000           0.756277           20.57934
    103       0.00000           0.766983           20.87067
    104       0.00000           0.772857           21.03051
    105       0.00000           0.791517           21.53827
    106       0.00000           0.796180           21.66516
    107       0.00000           0.821693           22.35940

  Highest occupied state (VBM) at     -2.48898716 eV
  | Occupation number:      1.00000001

  Lowest unoccupied state (CBM) at    -1.67482889 eV
  | Occupation number:      0.00000000

  Overall HOMO-LUMO gap:      0.81415827 eV.

  Total energy components:
  | Sum of eigenvalues            :        -258.76711454 Ha       -7041.41144957 eV
  | XC energy correction          :         -55.37276315 Ha       -1506.76954900 eV
  | XC potential correction       :          70.78574042 Ha        1926.17799966 eV
  | Free-atom electrostatic energy:        -214.19732273 Ha       -5828.60570773 eV
  | Hartree energy correction     :          -2.46237208 Ha         -67.00455348 eV
  | van der Waals energy corr.    :           0.00000000 Ha           0.00000000 eV
  | Entropy correction            :          -0.00010367 Ha          -0.00282095 eV
  | ---------------------------
  | Total energy                  :        -460.01383208 Ha      -12517.61326013 eV
  | Total energy, T -> 0          :        -460.01393575 Ha      -12517.61608107 eV  <-- do not rely on this value for anything but (periodic) metals
  | Electronic free energy        :        -460.01403942 Ha      -12517.61890202 eV

  Derived energy quantities:
  | Kinetic energy                :         457.40981534 Ha       12446.75435925 eV
  | Electrostatic energy          :        -862.05088427 Ha      -23457.59807037 eV
  | Energy correction for multipole
  | error in Hartree potential    :           0.00039577 Ha           0.01076957 eV
  | Sum of eigenvalues per atom                           :        -370.60060261 eV
  | Total energy (T->0) per atom                          :        -658.82189900 eV  <-- do not rely on this value for anything but (periodic) metals
  | Electronic free energy per atom                       :        -658.82204747 eV

  Self-consistency convergence accuracy:
  | Change of charge density      : 0.6916E+00
  | Change of sum of eigenvalues  : 0.6865E+02 eV
  | Change of total energy        : 0.3837E+01 eV

  End self-consistency iteration #     1       :  max(cpu_time)    wall_clock(cpu1)
  | Time for this iteration                    :        3.222 s           3.222 s
  | Charge density update                      :        1.059 s           1.059 s
  | Density mixing                             :        0.005 s           0.005 s
  | Hartree multipole update                   :        0.006 s           0.007 s
  | Hartree multipole summation                :        0.512 s           0.512 s
  | Integration                                :        1.546 s           1.546 s
  | Solution of K.-S. eqns.                    :        0.091 s           0.091 s
  | Total energy evaluation                    :        0.000 s           0.001 s
------------------------------------------------------------

------------------------------------------------------------
          Begin self-consistency iteration #    2

  Date     :  20150727, Time     :  120317.749
------------------------------------------------------------
  Evaluating new KS density.
  Integration grid: deviation in total charge (<rho> - N_e) =   7.875713E-09
  Pulay mixing of updated and previous charge densities.

  Evaluating partitioned Hartree potential by multipole expansion.
  | Analytical far-field extrapolation by fixed multipoles:
  | Hartree multipole sum: apparent total charge =  -0.427813E-05
  Summing up the Hartree potential.
  Time summed over all CPUs for potential: real work        4.067 s, elapsed        4.089 s
  | RMS charge density error from multipole expansion :   0.751736E-02

  Integrating Hamiltonian matrix: batch-based integration.
  Time summed over all CPUs for integration: real work       12.166 s, elapsed       12.336 s

  Updating Kohn-Sham eigenvalues, eigenvectors, occupation numbers, and Fermi level.
  Solving generalized eigenproblem
  Updating Kohn-Sham eigenvalues and eigenfunctions.
  Solving real generalised eigenvalue problem by standard LAPACK (fast)
  Determining occupation numbers for Kohn-Sham eigenstates.
  | Chemical potential (Fermi level) in eV                 : -.19274906E+01
  | Error in electron count due to remaining E_F inaccuracy: -.53430682E-09
  | Maximum occupation number of highest empty state:  0.00E+00

  Highest occupied state (VBM) at     -7.54015396 eV
  | Occupation number:      2.00000000

  Lowest unoccupied state (CBM) at    -1.92749064 eV
  | Occupation number:      1.00000000

  Overall HOMO-LUMO gap:      5.61266333 eV.

  Total energy components:
  | Sum of eigenvalues            :        -252.61586356 Ha       -6874.02739425 eV
  | XC energy correction          :         -56.04927878 Ha       -1525.17847580 eV
  | XC potential correction       :          71.66645104 Ha        1950.14335510 eV
  | Free-atom electrostatic energy:        -214.19732273 Ha       -5828.60570773 eV
  | Hartree energy correction     :          -8.65758277 Ha        -235.58481362 eV
  | van der Waals energy corr.    :           0.00000000 Ha           0.00000000 eV
  | Entropy correction            :          -0.00010367 Ha          -0.00282095 eV
  | ---------------------------
  | Total energy                  :        -459.85359680 Ha      -12513.25303630 eV
  | Total energy, T -> 0          :        -459.85370047 Ha      -12513.25585725 eV  <-- do not rely on this value for anything but (periodic) metals
  | Electronic free energy        :        -459.85380414 Ha      -12513.25867819 eV

  Derived energy quantities:
  | Kinetic energy                :         460.81047860 Ha       12539.29111473 eV
  | Electrostatic energy          :        -864.61479662 Ha      -23527.36567523 eV
  | Energy correction for multipole
  | error in Hartree potential    :           0.00040532 Ha           0.01102928 eV
  | Sum of eigenvalues per atom                           :        -361.79091549 eV
  | Total energy (T->0) per atom                          :        -658.59241354 eV  <-- do not rely on this value for anything but (periodic) metals
  | Electronic free energy per atom                       :        -658.59256201 eV

  Self-consistency convergence accuracy:
  | Change of charge density      : 0.5262E+00
  | Change of sum of eigenvalues  : 0.1674E+03 eV
  | Change of total energy        : 0.4360E+01 eV

  End self-consistency iteration #     2       :  max(cpu_time)    wall_clock(cpu1)
  | Time for this iteration                    :        3.216 s           3.215 s
  | Charge density update                      :        1.054 s           1.053 s
  | Density mixing                             :        0.007 s           0.007 s
  | Hartree multipole update                   :        0.006 s           0.007 s
  | Hartree multipole summation                :        0.512 s           0.512 s
  | Integration                                :        1.545 s           1.545 s
  | Solution of K.-S. eqns.                    :        0.091 s           0.091 s
  | Total energy evaluation                    :        0.000 s           0.000 s
------------------------------------------------------------

------------------------------------------------------------
          Begin self-consistency iteration #    3

  Date     :  20150727, Time     :  120320.965
------------------------------------------------------------
  Evaluating new KS density.
  Integration grid: deviation in total charge (<rho> - N_e) =  -5.342926E-10
  Pulay mixing of updated and previous charge densities.

  Evaluating partitioned Hartree potential by multipole expansion.
  | Analytical far-field extrapolation by fixed multipoles:
  | Hartree multipole sum: apparent total charge =  -0.382494E-05
  Summing up the Hartree potential.
  Time summed over all CPUs for potential: real work        4.066 s, elapsed        4.089 s
  | RMS charge density error from multipole expansion :   0.155414E-01

  Integrating Hamiltonian matrix: batch-based integration.
  Time summed over all CPUs for integration: real work       12.167 s, elapsed       12.339 s

  Updating Kohn-Sham eigenvalues, eigenvectors, occupation numbers, and Fermi level.
  Solving generalized eigenproblem
  Updating Kohn-Sham eigenvalues and eigenfunctions.
  Solving real generalised eigenvalue problem by standard LAPACK (fast)
  Determining occupation numbers for Kohn-Sham eigenstates.
  | Chemical potential (Fermi level) in eV                 : -.18419401E+01
  | Error in electron count due to remaining E_F inaccuracy: 0.00000000E+00
  | Maximum occupation number of highest empty state:  0.00E+00

  Highest occupied state (VBM) at     -1.84194006 eV
  | Occupation number:      1.00000000

  Lowest unoccupied state (CBM) at    -1.84194006 eV
  | Occupation number:      1.00000000

  Overall HOMO-LUMO gap:      0.00000000 eV.

  Total energy components:
  | Sum of eigenvalues            :        -252.85068545 Ha       -6880.41722284 eV
  | XC energy correction          :         -56.06094311 Ha       -1525.49587827 eV
  | XC potential correction       :          71.67127350 Ha        1950.27458095 eV
  | Free-atom electrostatic energy:        -214.19732273 Ha       -5828.60570773 eV
  | Hartree energy correction     :          -8.41468380 Ha        -228.97519644 eV
  | van der Waals energy corr.    :           0.00000000 Ha           0.00000000 eV
  | Entropy correction            :          -0.00010367 Ha          -0.00282095 eV
  | ---------------------------
  | Total energy                  :        -459.85236159 Ha      -12513.21942433 eV
  | Total energy, T -> 0          :        -459.85246525 Ha      -12513.22224528 eV  <-- do not rely on this value for anything but (periodic) metals
  | Electronic free energy        :        -459.85256892 Ha      -12513.22506622 eV

  Derived energy quantities:
  | Kinetic energy                :         458.68007879 Ha       12481.31998637 eV
  | Electrostatic energy          :        -862.47149727 Ha      -23469.04353243 eV
  | Energy correction for multipole
  | error in Hartree potential    :          -0.00562412 Ha          -0.15304019 eV
  | Sum of eigenvalues per atom                           :        -362.12722225 eV
  | Total energy (T->0) per atom                          :        -658.59064449 eV  <-- do not rely on this value for anything but (periodic) metals
  | Electronic free energy per atom                       :        -658.59079296 eV

  Self-consistency convergence accuracy:
  | Change of charge density      : 0.2522E+00
  | Change of sum of eigenvalues  : -.6390E+01 eV
  | Change of total energy        : 0.3361E-01 eV

  End self-consistency iteration #     3       :  max(cpu_time)    wall_clock(cpu1)
  | Time for this iteration                    :        3.217 s           3.216 s
  | Charge density update                      :        1.051 s           1.050 s
  | Density mixing                             :        0.008 s           0.008 s
  | Hartree multipole update                   :        0.006 s           0.007 s
  | Hartree multipole summation                :        0.512 s           0.512 s
  | Integration                                :        1.546 s           1.545 s
  | Solution of K.-S. eqns.                    :        0.092 s           0.093 s
  | Total energy evaluation                    :        0.000 s           0.000 s
------------------------------------------------------------

------------------------------------------------------------
          Begin self-consistency iteration #    4

  Date     :  20150727, Time     :  120324.181
------------------------------------------------------------
  Evaluating new KS density.
  Integration grid: deviation in total charge (<rho> - N_e) =   7.105427E-15
  Pulay mixing of updated and previous charge densities.

  Evaluating partitioned Hartree potential by multipole expansion.
  | Analytical far-field extrapolation by fixed multipoles:
  | Hartree multipole sum: apparent total charge =  -0.434701E-05
  Summing up the Hartree potential.
  Time summed over all CPUs for potential: real work        4.065 s, elapsed        4.088 s
  | RMS charge density error from multipole expansion :   0.187842E-01

  Integrating Hamiltonian matrix: batch-based integration.
  Time summed over all CPUs for integration: real work       12.169 s, elapsed       12.338 s

  Updating Kohn-Sham eigenvalues, eigenvectors, occupation numbers, and Fermi level.
  Solving generalized eigenproblem
  Updating Kohn-Sham eigenvalues and eigenfunctions.
  Solving real generalised eigenvalue problem by standard LAPACK (fast)
  Determining occupation numbers for Kohn-Sham eigenstates.
  | Chemical potential (Fermi level) in eV                 : -.17336214E+01
  | Error in electron count due to remaining E_F inaccuracy: -.14232171E-10
  | Maximum occupation number of highest empty state:  0.00E+00

  Highest occupied state (VBM) at     -6.89978164 eV
  | Occupation number:      2.00000000

  Lowest unoccupied state (CBM) at    -1.73362140 eV
  | Occupation number:      1.00000000

  Overall HOMO-LUMO gap:      5.16616024 eV.

  Total energy components:
  | Sum of eigenvalues            :        -251.68683540 Ha       -6848.74725156 eV
  | XC energy correction          :         -56.21375239 Ha       -1529.65403035 eV
  | XC potential correction       :          71.86776971 Ha        1955.62151466 eV
  | Free-atom electrostatic energy:        -214.19732273 Ha       -5828.60570773 eV
  | Hartree energy correction     :          -9.61715290 Ha        -261.69604538 eV
  | van der Waals energy corr.    :           0.00000000 Ha           0.00000000 eV
  | Entropy correction            :          -0.00010367 Ha          -0.00282095 eV
  | ---------------------------
  | Total energy                  :        -459.84729371 Ha      -12513.08152037 eV
  | Total energy, T -> 0          :        -459.84739738 Ha      -12513.08434132 eV  <-- do not rely on this value for anything but (periodic) metals
  | Electronic free energy        :        -459.84750104 Ha      -12513.08716227 eV

  Derived energy quantities:
  | Kinetic energy                :         458.78811501 Ha       12484.25980164 eV
  | Electrostatic energy          :        -862.42165633 Ha      -23467.68729166 eV
  | Energy correction for multipole
  | error in Hartree potential    :          -0.00731896 Ha          -0.19915908 eV
  | Sum of eigenvalues per atom                           :        -360.46038166 eV
  | Total energy (T->0) per atom                          :        -658.58338639 eV  <-- do not rely on this value for anything but (periodic) metals
  | Electronic free energy per atom                       :        -658.58353486 eV

  Self-consistency convergence accuracy:
  | Change of charge density      : 0.1092E+00
  | Change of sum of eigenvalues  : 0.3167E+02 eV
  | Change of total energy        : 0.1379E+00 eV

  End self-consistency iteration #     4       :  max(cpu_time)    wall_clock(cpu1)
  | Time for this iteration                    :        3.219 s           3.218 s
  | Charge density update                      :        1.050 s           1.050 s
  | Density mixing                             :        0.011 s           0.010 s
  | Hartree multipole update                   :        0.007 s           0.007 s
  | Hartree multipole summation                :        0.511 s           0.512 s
  | Integration                                :        1.546 s           1.545 s
  | Solution of K.-S. eqns.                    :        0.092 s           0.092 s
  | Total energy evaluation                    :        0.000 s           0.001 s
------------------------------------------------------------

------------------------------------------------------------
          Begin self-consistency iteration #    5

  Date     :  20150727, Time     :  120327.399
------------------------------------------------------------
  Evaluating new KS density.
  Integration grid: deviation in total charge (<rho> - N_e) =  -1.420375E-11
  Pulay mixing of updated and previous charge densities.

  Evaluating partitioned Hartree potential by multipole expansion.
  | Analytical far-field extrapolation by fixed multipoles:
  | Hartree multipole sum: apparent total charge =  -0.450779E-05
  Summing up the Hartree potential.
  Time summed over all CPUs for potential: real work        4.066 s, elapsed        4.088 s
  | RMS charge density error from multipole expansion :   0.196116E-01

  Integrating Hamiltonian matrix: batch-based integration.
  Time summed over all CPUs for integration: real work       12.162 s, elapsed       12.331 s

  Updating Kohn-Sham eigenvalues, eigenvectors, occupation numbers, and Fermi level.
  Solving generalized eigenproblem
  Updating Kohn-Sham eigenvalues and eigenfunctions.
  Solving real generalised eigenvalue problem by standard LAPACK (fast)
  Determining occupation numbers for Kohn-Sham eigenstates.
  | Chemical potential (Fermi level) in eV                 : -.17364336E+01
  | Error in electron count due to remaining E_F inaccuracy: 0.49389826E-10
  | Maximum occupation number of highest empty state:  0.00E+00

  Highest occupied state (VBM) at     -1.73643360 eV
  | Occupation number:      1.00000000

  Lowest unoccupied state (CBM) at    -0.96193768 eV
  | Occupation number:      0.00000000

  Overall HOMO-LUMO gap:      0.77449591 eV.

  Total energy components:
  | Sum of eigenvalues            :        -251.55840058 Ha       -6845.25236240 eV
  | XC energy correction          :         -56.23446089 Ha       -1530.21753747 eV
  | XC potential correction       :          71.89377946 Ha        1956.32927598 eV
  | Free-atom electrostatic energy:        -214.19732273 Ha       -5828.60570773 eV
  | Hartree energy correction     :          -9.75060534 Ha        -265.32747110 eV
  | van der Waals energy corr.    :           0.00000000 Ha           0.00000000 eV
  | Entropy correction            :          -0.00010367 Ha          -0.00282095 eV
  | ---------------------------
  | Total energy                  :        -459.84701009 Ha      -12513.07380271 eV
  | Total energy, T -> 0          :        -459.84711376 Ha      -12513.07662366 eV  <-- do not rely on this value for anything but (periodic) metals
  | Electronic free energy        :        -459.84721742 Ha      -12513.07944461 eV

  Derived energy quantities:
  | Kinetic energy                :         458.77347489 Ha       12483.86142364 eV
  | Electrostatic energy          :        -862.38602409 Ha      -23466.71768888 eV
  | Energy correction for multipole
  | error in Hartree potential    :          -0.00810036 Ha          -0.22042189 eV
  | Sum of eigenvalues per atom                           :        -360.27644013 eV
  | Total energy (T->0) per atom                          :        -658.58298019 eV  <-- do not rely on this value for anything but (periodic) metals
  | Electronic free energy per atom                       :        -658.58312866 eV

  Self-consistency convergence accuracy:
  | Change of charge density      : 0.3477E-01
  | Change of sum of eigenvalues  : 0.3495E+01 eV
  | Change of total energy        : 0.7718E-02 eV

  End self-consistency iteration #     5       :  max(cpu_time)    wall_clock(cpu1)
  | Time for this iteration                    :        3.218 s           3.217 s
  | Charge density update                      :        1.050 s           1.050 s
  | Density mixing                             :        0.013 s           0.012 s
  | Hartree multipole update                   :        0.006 s           0.007 s
  | Hartree multipole summation                :        0.512 s           0.512 s
  | Integration                                :        1.545 s           1.544 s
  | Solution of K.-S. eqns.                    :        0.091 s           0.092 s
  | Total energy evaluation                    :        0.001 s           0.000 s
------------------------------------------------------------

------------------------------------------------------------
          Begin self-consistency iteration #    6

  Date     :  20150727, Time     :  120330.616
------------------------------------------------------------
  Evaluating new KS density.
  Integration grid: deviation in total charge (<rho> - N_e) =   4.940404E-11
  Pulay mixing of updated and previous charge densities.

  Evaluating partitioned Hartree potential by multipole expansion.
  | Analytical far-field extrapolation by fixed multipoles:
  | Hartree multipole sum: apparent total charge =  -0.454268E-05
  Summing up the Hartree potential.
  Time summed over all CPUs for potential: real work        4.066 s, elapsed        4.088 s
  | RMS charge density error from multipole expansion :   0.199037E-01

  Integrating Hamiltonian matrix: batch-based integration.
  Time summed over all CPUs for integration: real work       12.158 s, elapsed       12.331 s

  Updating Kohn-Sham eigenvalues, eigenvectors, occupation numbers, and Fermi level.
  Solving generalized eigenproblem
  Updating Kohn-Sham eigenvalues and eigenfunctions.
  Solving real generalised eigenvalue problem by standard LAPACK (fast)
  Determining occupation numbers for Kohn-Sham eigenstates.
  | Chemical potential (Fermi level) in eV                 : -.17405863E+01
  | Error in electron count due to remaining E_F inaccuracy: 0.28920510E-09
  | Maximum occupation number of highest empty state:  0.00E+00

  Highest occupied state (VBM) at     -1.74058633 eV
  | Occupation number:      1.00000000

  Lowest unoccupied state (CBM) at    -0.96504587 eV
  | Occupation number:      0.00000000

  Overall HOMO-LUMO gap:      0.77554046 eV.

  Total energy components:
  | Sum of eigenvalues            :        -251.55974182 Ha       -6845.28885951 eV
  | XC energy correction          :         -56.23719346 Ha       -1530.29189458 eV
  | XC potential correction       :          71.89695952 Ha        1956.41580992 eV
  | Free-atom electrostatic energy:        -214.19732273 Ha       -5828.60570773 eV
  | Hartree energy correction     :          -9.74974336 Ha        -265.30401526 eV
  | van der Waals energy corr.    :           0.00000000 Ha           0.00000000 eV
  | Entropy correction            :          -0.00010367 Ha          -0.00282095 eV
  | ---------------------------
  | Total energy                  :        -459.84704186 Ha      -12513.07466716 eV
  | Total energy, T -> 0          :        -459.84714552 Ha      -12513.07748810 eV  <-- do not rely on this value for anything but (periodic) metals
  | Electronic free energy        :        -459.84724919 Ha      -12513.08030905 eV

  Derived energy quantities:
  | Kinetic energy                :         458.74590091 Ha       12483.11109737 eV
  | Electrostatic energy          :        -862.35574930 Ha      -23465.89386995 eV
  | Energy correction for multipole
  | error in Hartree potential    :          -0.00841829 Ha          -0.22907343 eV
  | Sum of eigenvalues per atom                           :        -360.27836103 eV
  | Total energy (T->0) per atom                          :        -658.58302569 eV  <-- do not rely on this value for anything but (periodic) metals
  | Electronic free energy per atom                       :        -658.58317416 eV

  Self-consistency convergence accuracy:
  | Change of charge density      : 0.8689E-02
  | Change of sum of eigenvalues  : -.3650E-01 eV
  | Change of total energy        : -.8644E-03 eV

  End self-consistency iteration #     6       :  max(cpu_time)    wall_clock(cpu1)
  | Time for this iteration                    :        3.218 s           3.218 s
  | Charge density update                      :        1.049 s           1.049 s
  | Density mixing                             :        0.014 s           0.014 s
  | Hartree multipole update                   :        0.006 s           0.007 s
  | Hartree multipole summation                :        0.512 s           0.511 s
  | Integration                                :        1.545 s           1.544 s
  | Solution of K.-S. eqns.                    :        0.091 s           0.091 s
  | Total energy evaluation                    :        0.000 s           0.001 s
------------------------------------------------------------

------------------------------------------------------------
          Begin self-consistency iteration #    7

  Date     :  20150727, Time     :  120333.834
------------------------------------------------------------
  Evaluating new KS density.
  Integration grid: deviation in total charge (<rho> - N_e) =   2.892548E-10
  Pulay mixing of updated and previous charge densities.

  Evaluating partitioned Hartree potential by multipole expansion.
  | Analytical far-field extrapolation by fixed multipoles:
  | Hartree multipole sum: apparent total charge =  -0.456958E-05
  Summing up the Hartree potential.
  Time summed over all CPUs for potential: real work        4.065 s, elapsed        4.088 s
  | RMS charge density error from multipole expansion :   0.198932E-01

  Integrating Hamiltonian matrix: batch-based integration.
  Time summed over all CPUs for integration: real work       12.161 s, elapsed       12.335 s

  Updating Kohn-Sham eigenvalues, eigenvectors, occupation numbers, and Fermi level.
  Solving generalized eigenproblem
  Updating Kohn-Sham eigenvalues and eigenfunctions.
  Solving real generalised eigenvalue problem by standard LAPACK (fast)
  Determining occupation numbers for Kohn-Sham eigenstates.
  | Chemical potential (Fermi level) in eV                 : -.17592928E+01
  | Error in electron count due to remaining E_F inaccuracy: 0.72475359E-12
  | Maximum occupation number of highest empty state:  0.00E+00

  Highest occupied state (VBM) at     -1.75929276 eV
  | Occupation number:      1.00000000

  Lowest unoccupied state (CBM) at    -0.98129918 eV
  | Occupation number:      0.00000000

  Overall HOMO-LUMO gap:      0.77799358 eV.

  Total energy components:
  | Sum of eigenvalues            :        -251.64940286 Ha       -6847.72866036 eV
  | XC energy correction          :         -56.22844916 Ha       -1530.05394986 eV
  | XC potential correction       :          71.88533945 Ha        1956.09961178 eV
  | Free-atom electrostatic energy:        -214.19732273 Ha       -5828.60570773 eV
  | Hartree energy correction     :          -9.65717504 Ha        -262.78510319 eV
  | van der Waals energy corr.    :           0.00000000 Ha           0.00000000 eV
  | Entropy correction            :          -0.00010367 Ha          -0.00282095 eV
  | ---------------------------
  | Total energy                  :        -459.84701033 Ha      -12513.07380936 eV
  | Total energy, T -> 0          :        -459.84711400 Ha      -12513.07663031 eV  <-- do not rely on this value for anything but (periodic) metals
  | Electronic free energy        :        -459.84721767 Ha      -12513.07945126 eV

  Derived energy quantities:
  | Kinetic energy                :         458.77460449 Ha       12483.89216156 eV
  | Electrostatic energy          :        -862.39316566 Ha      -23466.91202106 eV
  | Energy correction for multipole
  | error in Hartree potential    :          -0.00867327 Ha          -0.23601158 eV
  | Sum of eigenvalues per atom                           :        -360.40677160 eV
  | Total energy (T->0) per atom                          :        -658.58298054 eV  <-- do not rely on this value for anything but (periodic) metals
  | Electronic free energy per atom                       :        -658.58312901 eV

  Self-consistency convergence accuracy:
  | Change of charge density      : 0.7333E-02
  | Change of sum of eigenvalues  : -.2440E+01 eV
  | Change of total energy        : 0.8578E-03 eV

  End self-consistency iteration #     7       :  max(cpu_time)    wall_clock(cpu1)
  | Time for this iteration                    :        3.217 s           3.216 s
  | Charge density update                      :        1.046 s           1.046 s
  | Density mixing                             :        0.016 s           0.016 s
  | Hartree multipole update                   :        0.007 s           0.007 s
  | Hartree multipole summation                :        0.512 s           0.511 s
  | Integration                                :        1.545 s           1.545 s
  | Solution of K.-S. eqns.                    :        0.090 s           0.091 s
  | Total energy evaluation                    :        0.000 s           0.000 s
------------------------------------------------------------

------------------------------------------------------------
          Begin self-consistency iteration #    8

  Date     :  20150727, Time     :  120337.051
------------------------------------------------------------
  Evaluating new KS density.
  Integration grid: deviation in total charge (<rho> - N_e) =   7.602807E-13
  Pulay mixing of updated and previous charge densities.

  Evaluating partitioned Hartree potential by multipole expansion.
  | Analytical far-field extrapolation by fixed multipoles:
  | Hartree multipole sum: apparent total charge =  -0.461639E-05
  Summing up the Hartree potential.
  Time summed over all CPUs for potential: real work        4.066 s, elapsed        4.088 s
  | RMS charge density error from multipole expansion :   0.199233E-01

  Integrating Hamiltonian matrix: batch-based integration.
  Time summed over all CPUs for integration: real work       12.156 s, elapsed       12.328 s

  Updating Kohn-Sham eigenvalues, eigenvectors, occupation numbers, and Fermi level.
  Solving generalized eigenproblem
  Updating Kohn-Sham eigenvalues and eigenfunctions.
  Solving real generalised eigenvalue problem by standard LAPACK (fast)
  Determining occupation numbers for Kohn-Sham eigenstates.
  | Chemical potential (Fermi level) in eV                 : -.17664303E+01
  | Error in electron count due to remaining E_F inaccuracy: -.42632564E-12
  | Maximum occupation number of highest empty state:  0.00E+00

  Highest occupied state (VBM) at     -6.81850031 eV
  | Occupation number:      2.00000000

  Lowest unoccupied state (CBM) at    -1.76643031 eV
  | Occupation number:      1.00000000

  Overall HOMO-LUMO gap:      5.05207000 eV.

  Total energy components:
  | Sum of eigenvalues            :        -251.68827290 Ha       -6848.78636804 eV
  | XC energy correction          :         -56.22583405 Ha       -1529.98278928 eV
  | XC potential correction       :          71.88180082 Ha        1956.00332058 eV
  | Free-atom electrostatic energy:        -214.19732273 Ha       -5828.60570773 eV
  | Hartree energy correction     :          -9.61737518 Ha        -261.70209380 eV
  | van der Waals energy corr.    :           0.00000000 Ha           0.00000000 eV
  | Entropy correction            :          -0.00010367 Ha          -0.00282095 eV
  | ---------------------------
  | Total energy                  :        -459.84700405 Ha      -12513.07363827 eV
  | Total energy, T -> 0          :        -459.84710771 Ha      -12513.07645921 eV  <-- do not rely on this value for anything but (periodic) metals
  | Electronic free energy        :        -459.84721138 Ha      -12513.07928016 eV

  Derived energy quantities:
  | Kinetic energy                :         458.78983142 Ha       12484.30650759 eV
  | Electrostatic energy          :        -862.41100142 Ha      -23467.39735658 eV
  | Energy correction for multipole
  | error in Hartree potential    :          -0.00882452 Ha          -0.24012740 eV
  | Sum of eigenvalues per atom                           :        -360.46244042 eV
  | Total energy (T->0) per atom                          :        -658.58297154 eV  <-- do not rely on this value for anything but (periodic) metals
  | Electronic free energy per atom                       :        -658.58312001 eV

  Self-consistency convergence accuracy:
  | Change of charge density      : 0.2814E-02
  | Change of sum of eigenvalues  : -.1058E+01 eV
  | Change of total energy        : 0.1711E-03 eV

  End self-consistency iteration #     8       :  max(cpu_time)    wall_clock(cpu1)
  | Time for this iteration                    :        3.220 s           3.219 s
  | Charge density update                      :        1.047 s           1.047 s
  | Density mixing                             :        0.018 s           0.017 s
  | Hartree multipole update                   :        0.006 s           0.007 s
  | Hartree multipole summation                :        0.512 s           0.512 s
[...]
   Hellmann-Feynman + Multipole  : -.555457E+00 -.870019E+00 0.392180E+00
   Pulay + GGA                   : 0.447917E-01 0.115809E+00 -.749750E-01
   Van der Waals               : -.532909E-03 -.307534E-02 0.246006E-02
   ----------------------------------------------------------------
   Total forces(  16)            : -.511199E+00 -.757286E+00 0.319665E+00
  atom #   17
   Hellmann-Feynman + Multipole  : -.134313E+01 -.122390E+02 -.543099E+00
   Pulay + GGA                   : 0.196947E+01 0.124663E+02 -.804975E+00
   Van der Waals               : -.408875E-02 -.652931E-02 -.338364E-02
   ----------------------------------------------------------------
   Total forces(  17)            : 0.622248E+00 0.220774E+00 -.135146E+01
  atom #   18
   Hellmann-Feynman + Multipole  : -.335709E+00 0.535060E+00 0.419591E+00
   Pulay + GGA                   : -.791902E-01 0.864172E-01 0.712446E-01
   Van der Waals               : 0.392836E-02 -.222622E-02 -.419542E-02
   ----------------------------------------------------------------
   Total forces(  18)            : -.410971E+00 0.619251E+00 0.486640E+00
  atom #   19
   Hellmann-Feynman + Multipole  : -.568247E+00 -.674913E+00 0.877899E+00
   Pulay + GGA                   : 0.311196E-01 0.635874E-01 -.720314E-01
   Van der Waals               : -.114252E-02 -.288259E-02 -.172566E-02
   ----------------------------------------------------------------
   Total forces(  19)            : -.538270E+00 -.614208E+00 0.804142E+00
  Timings for vdw_correction_hirshfeld (Tkatchenko-Scheffler 2009):
  | CPU time:        8.744 s, Wall clock time:        8.743 s.
  Removing unitary transformations (pure translations, rotations) from forces on atoms.
  Atomic forces before filtering:
  | Net force on center of mass :  0.113643E-01 -.174879E-02 0.465214E-02 eV/A
  | Net torque on center of mass:  -.439426E-02 -.203420E-02 -.104514E-01 eV
  Atomic forces after filtering:
  | Net force on center of mass :  0.535218E-15 0.446015E-15 0.356812E-15 eV/A
  | Net torque on center of mass:  -.457881E-14 -.226580E-14 0.566451E-15 eV
 
  Energy and forces in a compact form:
  | Total energy uncorrected      :         -0.125131991588642E+05 eV
  | Total energy corrected        :         -0.125132019798121E+05 eV  <-- do not rely on this value for anything but (periodic) metals
  | Electronic free energy        :         -0.125132048007601E+05 eV
  Total atomic forces (unitary forces cleaned) [eV/Ang]:
  |   1          0.434554529321244E+00          0.124822932455942E+01         -0.148612438298896E+01
  |   2          0.203712218793062E+00         -0.480035702103996E+00          0.946878739095509E-01
  |   3         -0.633129472350492E+00         -0.216354288296471E+00          0.346466685430055E-01
  |   4         -0.535781302779001E-01         -0.195321266695141E+00          0.119032803778896E+01
  |   5         -0.774929138572037E+00         -0.234304642959667E+01         -0.155474811655023E+01
  |   6          0.203750839867348E+00          0.178688520686625E+01          0.142098584233506E+01
  |   7          0.454597176821587E+00          0.556535009216985E+00          0.118232542799707E+00
  |   8          0.345650220786654E+00         -0.944242742475007E+00          0.265911482232704E+01
  |   9          0.928180894329552E-01          0.286509559228996E+00          0.159435303503727E+00
  |  10         -0.338107280183670E+00          0.355445541308853E+00         -0.271452939152360E+01
  |  11         -0.364070676454603E+00          0.380821144408988E+00          0.204712774672884E+01
  |  12         -0.263540420503159E+00          0.234748473793586E+00         -0.206087329369205E+01
  |  13          0.886238859031741E+00         -0.927490773083444E+00          0.213771156905924E+00
  |  14          0.449914503996693E+00          0.109323362993089E+01         -0.506731438308072E+00
  |  15          0.197911322822947E+00         -0.304359532103646E+00          0.126296514111907E+00
  |  16         -0.512257806920964E+00         -0.757037685400244E+00          0.319501701185625E+00
  |  17          0.621458855982638E+00          0.220658224917753E+00         -0.135161933137903E+01
  |  18         -0.411846806573358E+00          0.619052902534877E+00          0.486513905082829E+00
  |  19         -0.539146885020687E+00         -0.614230597011973E+00          0.803983839219784E+00
 
  ------------------------------------ 
  Start decomposition of the XC Energy 
  ------------------------------------ 
  Hartree-Fock part   :          0.000000000 Ha              0.000000000 eV
  ------------------------------------ 
  X Energy            :        -54.230768229 Ha          -1475.694286019 eV
  C Energy GGA        :         -1.995457502 Ha            -54.299161334 eV
  Total XC Energy     :        -56.226225731 Ha          -1529.993447353 eV
  LDA X and C from self-consistent density 
  X Energy LDA        :        -48.907444940 Ha          -1330.839289164 eV
  C Energy LDA        :         -4.002716438 Ha           -108.919456041 eV
  ------------------------------------ 
  End decomposition of the XC Energy 
  ------------------------------------ 
  Performing Hirshfeld analysis of fragment charges and moments.
  ----------------------------------------------------------------------
  | Atom     1: O
  |   Hirshfeld charge        :     -0.13639603
  |   Free atom volume        :     23.95238533
  |   Hirshfeld volume        :     22.01142339
  |   Hirshfeld dipole vector :     -0.00942072       0.02626145       0.03178879
  |   Hirshfeld dipole moment :      0.04229587
  |   Hirshfeld second moments:      0.07889665      -0.00671604      -0.00206070
  |                                 -0.00671604       0.03761847      -0.02559021
  |                                 -0.00206070      -0.02559021       0.04973553
  ----------------------------------------------------------------------
  | Atom     2: H
  |   Hirshfeld charge        :      0.11008781
  |   Free atom volume        :     10.44207651
  |   Hirshfeld volume        :      9.93505209
  |   Hirshfeld dipole vector :     -0.01812366       0.00988046       0.00687330
  |   Hirshfeld dipole moment :      0.02175621
  |   Hirshfeld second moments:      0.03378410       0.01431343       0.00185511
  |                                  0.01431343       0.02650106       0.01162527
  |                                  0.00185511       0.01162527       0.05883751
  ----------------------------------------------------------------------
  | Atom     3: H
  |   Hirshfeld charge        :      0.08924245
  |   Free atom volume        :     10.44207651
  |   Hirshfeld volume        :     14.04166937
  |   Hirshfeld dipole vector :     -0.01300038      -0.00892804       0.01999653
  |   Hirshfeld dipole moment :      0.02546725
  |   Hirshfeld second moments:     -0.07631455      -0.03760944       0.00644697
  |                                 -0.03760944      -0.01453731      -0.00186424
  |                                  0.00644697      -0.00186424      -0.00171675
  ----------------------------------------------------------------------
  | Atom     4: H
  |   Hirshfeld charge        :      0.10991777
  |   Free atom volume        :     10.44207651
  |   Hirshfeld volume        :      9.24205187
  |   Hirshfeld dipole vector :     -0.02241486       0.00221131       0.01834862
  |   Hirshfeld dipole moment :      0.02905147
  |   Hirshfeld second moments:      0.06738870       0.00307527       0.01057031
  |                                  0.00307527       0.07041320       0.00383313
  |                                  0.01057031       0.00383313       0.01969913
  ----------------------------------------------------------------------
  | Atom     5: O
  |   Hirshfeld charge        :     -0.23381412
  |   Free atom volume        :     23.95238533
  |   Hirshfeld volume        :     21.59747597
  |   Hirshfeld dipole vector :     -0.02501027       0.02633675       0.00008679
  |   Hirshfeld dipole moment :      0.03632005
  |   Hirshfeld second moments:      0.03887063       0.04284469      -0.01160388
  |                                  0.04284469       0.03596172       0.00813430
  |                                 -0.01160388       0.00813430       0.05908642
  ----------------------------------------------------------------------
  | Atom     6: H
  |   Hirshfeld charge        :      0.09363435
  |   Free atom volume        :     10.44207651
  |   Hirshfeld volume        :      8.98389011
  |   Hirshfeld dipole vector :      0.00208772       0.02569483       0.02816991
  |   Hirshfeld dipole moment :      0.03818542
  |   Hirshfeld second moments:      0.05807663      -0.00493175      -0.00508881
  |                                 -0.00493175       0.03179759      -0.02068009
  |                                 -0.00508881      -0.02068009       0.06917757
  ----------------------------------------------------------------------
  | Atom     7: H
  |   Hirshfeld charge        :      0.14216256
  |   Free atom volume        :     10.44207651
  |   Hirshfeld volume        :      8.55803837
  |   Hirshfeld dipole vector :     -0.07921323      -0.04524414       0.02249884
  |   Hirshfeld dipole moment :      0.09395725
  |   Hirshfeld second moments:      0.06261450       0.00705695       0.00198728
  |                                  0.00705695       0.08046644       0.00985383
  |                                  0.00198728       0.00985383       0.08811420
  ----------------------------------------------------------------------
  | Atom     8: O
  |   Hirshfeld charge        :     -0.21769851
  |   Free atom volume        :     23.95238533
  |   Hirshfeld volume        :     22.11228857
  |   Hirshfeld dipole vector :      0.02699521       0.00202068      -0.01088636
  |   Hirshfeld dipole moment :      0.02917769
  |   Hirshfeld second moments:     -0.00591983      -0.00090758       0.03366606
  |                                 -0.00090758       0.05720250       0.00397166
  |                                  0.03366606       0.00397166       0.06831339
  ----------------------------------------------------------------------
  | Atom     9: H
  |   Hirshfeld charge        :      0.09294347
  |   Free atom volume        :     10.44207651
  |   Hirshfeld volume        :     10.35339246
  |   Hirshfeld dipole vector :      0.00566333       0.02723435       0.02360523
  |   Hirshfeld dipole moment :      0.03648273
  |   Hirshfeld second moments:      0.00839101      -0.01380507       0.01263204
  |                                 -0.01380507       0.03328480      -0.01097602
  |                                  0.01263204      -0.01097602       0.05281690
  ----------------------------------------------------------------------
  | Atom    10: H
  |   Hirshfeld charge        :      0.11450318
  |   Free atom volume        :     10.44207651
  |   Hirshfeld volume        :     11.15263767
  |   Hirshfeld dipole vector :     -0.02059771       0.00398837      -0.06626839
  |   Hirshfeld dipole moment :      0.06951023
  |   Hirshfeld second moments:      0.01343732       0.00055153       0.01675668
  |                                  0.00055153       0.05006460       0.00707324
  |                                  0.01675668       0.00707324       0.02927761
  ----------------------------------------------------------------------
  | Atom    11: O
  |   Hirshfeld charge        :     -0.28429296
  |   Free atom volume        :     23.95238533
  |   Hirshfeld volume        :     22.77531838
  |   Hirshfeld dipole vector :     -0.05292920      -0.00919519       0.02164956
  |   Hirshfeld dipole moment :      0.05792025
  |   Hirshfeld second moments:     -0.03728859      -0.02435604       0.03778670
  |                                 -0.02435604       0.01456003      -0.00154189
  |                                  0.03778670      -0.00154189       0.03646445
  ----------------------------------------------------------------------
  | Atom    12: H
  |   Hirshfeld charge        :      0.11870265
  |   Free atom volume        :     10.44207651
  |   Hirshfeld volume        :      8.62735910
  |   Hirshfeld dipole vector :      0.00972634      -0.01257601       0.09792162
  |   Hirshfeld dipole moment :      0.09920383
  |   Hirshfeld second moments:      0.06696379      -0.01370990       0.01379200
  |                                 -0.01370990       0.08023299       0.00442822
  |                                  0.01379200       0.00442822       0.06556115
  ----------------------------------------------------------------------
  | Atom    13: H
  |   Hirshfeld charge        :      0.07817947
  |   Free atom volume        :     10.44207651
  |   Hirshfeld volume        :      9.04306064
  |   Hirshfeld dipole vector :     -0.02999756       0.02194302       0.00238145
  |   Hirshfeld dipole moment :      0.03724273
  |   Hirshfeld second moments:      0.02232297       0.01526888      -0.00828624
  |                                  0.01526888       0.04235295       0.01027321
  |                                 -0.00828624       0.01027321       0.07869528
  ----------------------------------------------------------------------
  | Atom    14: O
  |   Hirshfeld charge        :     -0.21662387
  |   Free atom volume        :     23.95238533
  |   Hirshfeld volume        :     22.51050625
  |   Hirshfeld dipole vector :     -0.00737159      -0.01263160       0.01287642
  |   Hirshfeld dipole moment :      0.01948589
  |   Hirshfeld second moments:      0.02577524       0.00618176       0.01029775
  |                                  0.00618176       0.04591241      -0.02430848
  |                                  0.01029775      -0.02430848       0.01954036
  ----------------------------------------------------------------------
  | Atom    15: H
  |   Hirshfeld charge        :      0.07513485
  |   Free atom volume        :     10.44207651
  |   Hirshfeld volume        :     12.84243620
  |   Hirshfeld dipole vector :     -0.00162882      -0.01620910       0.04081924
  |   Hirshfeld dipole moment :      0.04394996
  |   Hirshfeld second moments:     -0.04332607       0.02940237       0.01008818
  |                                  0.02940237       0.01035755      -0.01582529
  |                                  0.01008818      -0.01582529      -0.00012034
  ----------------------------------------------------------------------
  | Atom    16: H
  |   Hirshfeld charge        :      0.07632029
  |   Free atom volume        :     10.44207651
  |   Hirshfeld volume        :     13.49959390
  |   Hirshfeld dipole vector :     -0.00396343       0.03301085      -0.00715401
  |   Hirshfeld dipole moment :      0.03400889
  |   Hirshfeld second moments:     -0.01779290      -0.00443059       0.01222482
  |                                 -0.00443059      -0.01589336      -0.00641777
  |                                  0.01222482      -0.00641777      -0.02408453
  ----------------------------------------------------------------------
  | Atom    17: O
  |   Hirshfeld charge        :     -0.23820384
  |   Free atom volume        :     23.95238533
  |   Hirshfeld volume        :     21.83342376
  |   Hirshfeld dipole vector :      0.02922131       0.01988208       0.01307142
  |   Hirshfeld dipole moment :      0.03768348
  |   Hirshfeld second moments:      0.02031945      -0.03372418      -0.03397298
  |                                 -0.03372418       0.03685105      -0.00443906
  |                                 -0.03397298      -0.00443906       0.05029635
  ----------------------------------------------------------------------
  | Atom    18: H
  |   Hirshfeld charge        :      0.12711090
  |   Free atom volume        :     10.44207651
  |   Hirshfeld volume        :      8.72056192
  |   Hirshfeld dipole vector :     -0.04503652       0.06566536       0.05237897
  |   Hirshfeld dipole moment :      0.09530889
  |   Hirshfeld second moments:      0.06942548      -0.00613722      -0.00699956
  |                                 -0.00613722       0.06985828      -0.01046904
  |                                 -0.00699956      -0.01046904       0.07913728
  ----------------------------------------------------------------------
  | Atom    19: H
  |   Hirshfeld charge        :      0.09901207
  |   Free atom volume        :     10.44207651
  |   Hirshfeld volume        :      9.28652771
  |   Hirshfeld dipole vector :      0.01838281       0.02249867      -0.03015029
  |   Hirshfeld dipole moment :      0.04187072
  |   Hirshfeld second moments:      0.04488703      -0.02183368       0.00770032
  |                                 -0.02183368       0.06145893       0.01264442
  |                                  0.00770032       0.01264442       0.04199580
  ----------------------------------------------------------------------


------------------------------------------------------------------------------
  Final output of selected total energy values:

  The following output summarizes some interesting total energy values
  at the end of a run (AFTER all relaxation, molecular dynamics, etc.).

  | Total energy of the DFT / Hartree-Fock s.c.f. calculation      :         -12513.199158864 eV
  | Final zero-broadening corrected energy (caution - metals only) :         -12513.201979812 eV
  | For reference only, the value of 1 Hartree used in FHI-aims is :             27.211384500 eV

  Before relying on these values, please be sure to understand exactly which
  total energy value is referred to by a given number. Different objects may
  all carry the same name 'total energy'. Definitions:

  Total energy of the DFT / Hartree-Fock s.c.f. calculation:
  | Note that this energy does not include ANY quantities calculated after the
  | s.c.f. cycle, in particular not ANY RPA, MP2, etc. many-body perturbation terms.

  Final zero-broadening corrected energy:
  | For metallic systems only, a broadening of the occupation numbers at the Fermi
  | level can be extrapolated back to zero broadening by an electron-gas inspired
  | formula. For all systems that are not real metals, this value can be
  | meaningless and should be avoided.

------------------------------------------------------------------------------

------------------------------------------------------------
          Leaving FHI-aims.
          Date     :  20150727, Time     :  120412.679

          Computational steps:
          | Number of self-consistency cycles          :           16

          Detailed time accounting                     :  max(cpu_time)    wall_clock(cpu1)
          | Total time                                 :       61.986 s          62.018 s
          | Preparation time                           :        0.168 s           0.595 s
          | Grid partitioning                          :        0.163 s           0.163 s
          | Preloading free-atom quantities on grid    :        0.014 s           0.013 s
          | Free-atom superposition energy             :        0.099 s           0.099 s
          | Total time for integrations                :       27.120 s          27.120 s
          | Total time for solution of K.-S. equations :        1.797 s           1.799 s
          | Total time for density & force components  :       21.452 s          21.452 s
          | Total time for mixing                      :        0.264 s           0.262 s
          | Total time for Hartree multipole update    :        0.105 s           0.109 s
          | Total time for Hartree multipole sum       :        9.922 s           9.922 s
          | Total time for total energy evaluation     :        0.003 s           0.008 s
          | Total time for scaled ZORA corrections     :        0.000 s           0.000 s
          | Total time for TS (2009) vdW correction    :        0.080 s           0.080 s

          Have a nice day.
------------------------------------------------------------
