  MPI-parallelism will be employed.
------------------------------------------------------------
          Invoking FHI-aims ...
          Version 081213
          Compiled on 2013/08/29 at 17:41:06 on host generoso.

          When using FHI-aims, please cite the following reference:

          Volker Blum, Ralf Gehrke, Felix Hanke, Paula Havu,
          Ville Havu, Xinguo Ren, Karsten Reuter, and Matthias Scheffler,
          'Ab Initio Molecular Simulations with Numeric Atom-Centered Orbitals: FHI-aims',
          Computer Physics Communications 180, 2175-2196 (2009)

          For any questions about FHI-aims, please visit the aimsclub website
          with its forums and wiki. Contributions to both the forums and the
          wiki are warmly encouraged - they are for you, and everyone is welcome there.

------------------------------------------------------------

  Date     :  20150727, Time     :  125231.984
  Time zero on CPU 1             :   0.429920000000000E-01  s.
  Internal wall clock time zero  :           207233551.984  s.

  Using        8 parallel tasks.
  Task        0 on host gen59 reporting.
  Task        1 on host gen59 reporting.
  Task        2 on host gen59 reporting.
  Task        3 on host gen59 reporting.
  Task        4 on host gen59 reporting.
  Task        5 on host gen59 reporting.
  Task        6 on host gen59 reporting.
  Task        7 on host gen59 reporting.

  Performing system and environment tests:
  | Environment variable OMP_NUM_THREADS correctly set to 1.
  | Checking for scalapack...
  | No scalapack compiled in.

  Obtaining array dimensions for all initial allocations:
  
  -----------------------------------------------------------------------
  Parsing control.in (first pass over file, find array dimensions only).
  The contents of control.in will be repeated verbatim below
  unless switched off by setting 'verbatim_writeout .false.' .
  in the first line of control.in .
  -----------------------------------------------------------------------
  
  #########################################################################################
  #
  #  Volker Blum, FHI 2008 : Test run input file control.in
  #
  #########################################################################################
  #
  #  Physical model
  #
    xc                 rpbe
    spin               none
    relativistic       atomic_zora scalar
    charge             0.
   vdw_correction_hirshfeld
  #
  #  SCF convergence
  #
    occupation_type    gaussian 0.01
    mixer              pulay
      n_max_pulay        10
      charge_mix_param   0.1
    sc_accuracy_rho    5E-5
    sc_accuracy_eev    5E-3
    sc_accuracy_etot   5E-6
    sc_iter_limit      3000
  #
  #  Eigenvalue solver
  #
    KS_method          lapack
      empty_states       8
      basis_threshold    0.e-5
  #
  #  Efficiency
  #
  #   all previous settings are now default, except stratmann still
  #   undecided. Continue to handle stratmann with care, if at all.
  #
  #  partition_type stratmann
    partition_type rho_r2
  #  hartree_partition_type stratmann
  #
  #  Oprions for large clusters (100's of atoms: memory saving / better scaling)
  #
  # for periodic systems:
  #
    density_update_method orbital
    packed_matrix_format none
  #  k_grid 6 6 6
  #  output k_eigenvalue 1
  #  distributed_spline_storage .true.
  #
  #  Relaxation
  #
  #  relax_geometry   bfgs 5.e-3
    sc_accuracy_forces 5.E-4
    final_forces_cleaned .true.
  #
  #  Output options
  #
  #  output mulliken
    output Hirshfeld
  #  output dipole
  
  #harmonic_length_scale 0.001
  
  ################################################################################
  #
  #  FHI-aims code project
  #  VB, Fritz-Haber Institut, 2007
  #
  #  Suggested "safe" defaults for H atom (to be pasted into control.in file)
  #  Basis constructed for a non-relativistic H2 molecule using the
  #  PW-LDA functional.
  #
  ################################################################################
    species        H
  #     global species definitions
      nucleus             1
      cut_pot             4.0  2.0  1.0
      cut_free_atom       finite 8.0
      logarithmic         0.00010000 100.00  1.0123
      basis_dep_cutoff    1d-4  # 1d-4 is safe default - please check 5d-4 if you wish!
      radial_base         24 7.0
      radial_multiplier   2
      angular_grids       specified
        division   0.2783  110
        division   0.3822  194
        division   0.5626  302
  #      division   0.5922  434
  #      division   0.6227  590
  #      division   0.7206  770
        outer_grid  302
      l_hartree           4
  ################################################################################
  #
  #  Definition of "minimal" basis
  #
  ################################################################################
  #     valence basis states
      valence      1  s   1.
  #     ion occupancy
      ion_occ      1  s   0.5
  ################################################################################
  #
  #  Suggested additional basis functions. For production calculations,
  #  uncomment them one after another (the most important basis functions are
  #  listed first).
  #
  ################################################################################
  #  "First tier" - improvements: -1014.90 meV to -62.69 meV
       hydro 2 s 2.1
       hydro 2 p 3.5
  #  "Second tier" - improvements: -12.89 meV to -1.83 meV
       hydro 1 s 0.85
       hydro 2 p 3.7
       hydro 2 s 1.2
       hydro 3 d 7
  #  "Third tier" - improvements: -0.25 meV to -0.12 meV
  #     hydro 4 f 11.2
  #     hydro 3 p 4.8
  #     hydro 4 d 9
  #     hydro 3 s 3.2
  
  ################################################################################
  #
  #  FHI-aims code project
  #  VB, Fritz-Haber Institut, 2007
  #
  #  Suggested "safe" defaults for O atom (to be pasted into control.in file)
  #  All values have been tested for a non-relativistic, non-spinpolarized O2
  #  molecule using the PW-LDA functional. Validity for PBE is expected.
  #
  #  Constructed for dimers: 1.0 A, 1.208 A, 1.5 A, 2.0 A, 3.0 A
  #
  ################################################################################
    species        O
  #     global species definitions
      nucleus             8
      mass                15.9994
      l_hartree           4
      cut_pot             4.0  2.0  1.0
      cut_free_atom       finite 8.0
      basis_dep_cutoff    1d-4  # 1d-4 is safe default - please check 5d-4 if you wish!
      logarithmic         0.00010000 100.00  1.0123
      radial_base         36 7.0
      radial_multiplier   2
       angular_grids specified
        division   0.4087  110
        division   0.5181  194
        division   0.6184  302
  #      division   0.7315  434
  #      division   0.7934  590
  #      division   0.9656  770
  #      division   1.4041  974
  #      outer_grid 974
        outer_grid 302
  ################################################################################
  #
  #  Definition of "minimal" basis
  #
  ################################################################################
  #     valence basis states
      valence      2  s   2.
      valence      2  p   4.
  #     ion occupancy
      ion_occ      2  s   1.
      ion_occ      2  p   3.
  ################################################################################
  #
  #  Suggested additional basis functions. For production calculations,
  #  uncomment them one after another (the most important basis functions are
  #  listed first).
  #
  ################################################################################
  #  "First tier" - improvements: -699.05 meV to -159.38 meV
       hydro 2 p 1.8
       hydro 3 d 7.6
       hydro 3 s 6.4
  #  "Second tier" - improvements: -49.91 meV to -5.39 meV
       hydro 4 f 11.6
       hydro 3 p 6.2
       hydro 3 d 5.6
       hydro 5 g 17.6
       hydro 1 s 0.75
  #  "Third tier" - improvements: -2.83 meV to -0.50 meV
  #     ionic 2 p auto
  #     hydro 4 f 10.8
  #     hydro 4 d 4.7
  #     hydro 2 s 6.8
  #  "Fourth tier" - improvements: -0.40 meV to -0.12 meV
  #     hydro 3 p 5
  #     hydro 3 s 3.3
  #     hydro 5 g 15.6
  #     hydro 4 f 17.6
  #     hydro 4 d 14
  # Further basis functions - -0.08 meV and below
  #     hydro 3 s 2.1
  #     hydro 4 d 11.6
  #     hydro 3 p 16
  #     hydro 2 s 17.2
  
  
  -----------------------------------------------------------------------
  Completed first pass over input file control.in .
  -----------------------------------------------------------------------
  
  
  -----------------------------------------------------------------------
  Parsing geometry.in (first pass over file, find array dimensions only).
  The contents of geometry.in will be repeated verbatim below
  unless switched off by setting 'verbatim_writeout .false.' .
  in the first line of geometry.in .
  -----------------------------------------------------------------------
  
  atom      -4.053030000      0.065001000     -1.525160000  O
  atom      -4.566710000      0.974813000     -1.912820000  H
  atom      -3.067820000      0.330172000     -1.477310000  H
  atom      -4.370360000     -0.049164000     -0.572274000  H
  atom      -5.293160000      2.192130000     -2.328800000  O
  atom      -4.829300000      2.988660000     -1.973850000  H
  atom      -5.428570000      2.328640000     -3.235170000  H
  atom      -5.628340000      3.730740000      1.385610000  O
  atom      -6.090650000      4.418470000      1.860350000  H
  atom      -5.158540000      4.200260000      0.615875000  H
  
  -----------------------------------------------------------------------
  Completed first pass over input file geometry.in .
  -----------------------------------------------------------------------
  
 
  Basic array size parameters: 
  | Number of species                 :        2
  | Number of atoms                   :       10
  | Max. basis fn. angular momentum   :        4
  | Max. atomic/ionic basis occupied n:        2
  | Max. number of basis fn. types    :        2
  | Max. radial fns per species/type  :        8
  | Max. logarithmic grid size        :     1301
  | Max. radial integration grid size :       73
  | Max. angular integration grid size:      302
  | Max. angular grid division number :        8
  | Radial grid for Hartree potential :     1301
  | Number of spin channels           :        1

------------------------------------------------------------
          Reading file control.in.
------------------------------------------------------------
  XC: Using RPBE gradient-corrected functionals.
  Spin treatment: No spin polarisation.
  Scalar relativistic treatment of kinetic energy: on-site free-atom approximation to ZORA.
  Charge =   0.000000E+00: Neutral system requested explicitly.
  Using non-empirical van der Waals correction (Hirshfeld partitioning):
  Occupation type: Gaussian broadening, width =   0.100000E-01 eV.
  Using pulay charge density mixing.
  Pulay mixing - number of memorized iterations:   10
  Charge density mixing - mixing parameter:     0.1000
  Convergence accuracy of self-consistent charge density: 0.5000E-04
  Convergence accuracy of sum of eigenvalues: 0.5000E-02
  Convergence accuracy of total energy: 0.5000E-05
  Maximum number of s.-c. iterations  :  3000
  Kohn-Sham eigenvalues and eigenfunctions calculated by lapack diagonalisation (D&C).
  Number of empty states per atom:        8
  Threshold for basis singularities: 0.0000E+00
  Partition function in integrals calculations: rho / r^2
 Using packed matrix format           0
  Convergence accuracy of forces: 0.5000E-03
  Cleaning forces before final output.
  Hirshfeld charge analysis will be performed.
 
  Reading configuration options for species H                   .
  | Found nuclear charge :   1.0000
  | Found cutoff potl. onset [A], width [A], scale factor :    4.00000    2.00000    1.00000
  | Found cutoff specification for free atom: Cutoff potential begins at    8.00000 A.
  | Found logarithmic grid data [bohr] : 0.1000E-03 0.1000E+03 0.1012E+01
  | Threshold for basis-dependent cutoff potential is   0.100000E-03
  | Found data for basic radial integration grid :    24 points, outermost radius =    7.000 A
  | Found multiplier for basic radial grid :   2
  | Found angular grid specification: user-specified.
  | Specified grid contains     4 separate shells.
  | Check grid settings after all constraints further below.
  | Found l_max for Hartree potential  :   4
  | Found free-atom valence shell :  1 s   1.000
  | No ionic wave fns used. Skipping ion_occ.
  | Found hydrogenic basis function :  2 s   2.100
  | Found hydrogenic basis function :  2 p   3.500
  | Found hydrogenic basis function :  1 s   0.850
  | Found hydrogenic basis function :  2 p   3.700
  | Found hydrogenic basis function :  2 s   1.200
  | Found hydrogenic basis function :  3 d   7.000
  Species H                   : Missing cutoff potential type.
  Defaulting to exp(1/x)/(1-x)^2 type cutoff potential.
  Species H : On-site basis accuracy parameter (for Gram-Schmidt orthonormalisation) not specified.
  Using default value basis_acc =  0.1000000E-03.
  Species H                   : Using default innermost maximum threshold i_radial=  2 for radial functions.
  Species H                   : Basic radial grid will be enhanced according to radial_multiplier =   2, to contain    49 grid points.
 
  Reading configuration options for species O                   .
  | Found nuclear charge :   8.0000
  | Found atomic mass :    15.9994000000000      amu
  | Found l_max for Hartree potential  :   4
  | Found cutoff potl. onset [A], width [A], scale factor :    4.00000    2.00000    1.00000
  | Found cutoff specification for free atom: Cutoff potential begins at    8.00000 A.
  | Threshold for basis-dependent cutoff potential is   0.100000E-03
  | Found logarithmic grid data [bohr] : 0.1000E-03 0.1000E+03 0.1012E+01
  | Found data for basic radial integration grid :    36 points, outermost radius =    7.000 A
  | Found multiplier for basic radial grid :   2
  | Found angular grid specification: user-specified.
  | Specified grid contains     4 separate shells.
  | Check grid settings after all constraints further below.
  | Found free-atom valence shell :  2 s   2.000
  | Found free-atom valence shell :  2 p   4.000
  | No ionic wave fns used. Skipping ion_occ.
  | No ionic wave fns used. Skipping ion_occ.
  | Found hydrogenic basis function :  2 p   1.800
  | Found hydrogenic basis function :  3 d   7.600
  | Found hydrogenic basis function :  3 s   6.400
  | Found hydrogenic basis function :  4 f  11.600
  | Found hydrogenic basis function :  3 p   6.200
  | Found hydrogenic basis function :  3 d   5.600
  | Found hydrogenic basis function :  5 g  17.600
  | Found hydrogenic basis function :  1 s   0.750
  Species O                   : Missing cutoff potential type.
  Defaulting to exp(1/x)/(1-x)^2 type cutoff potential.
  Species O : On-site basis accuracy parameter (for Gram-Schmidt orthonormalisation) not specified.
  Using default value basis_acc =  0.1000000E-03.
  Species O                   : Using default innermost maximum threshold i_radial=  2 for radial functions.
  Species O                   : Basic radial grid will be enhanced according to radial_multiplier =   2, to contain    73 grid points.
 
  Finished reading input file 'control.in'. Consistency checks are next.
 
  Target number of points in a grid batch is not set. Defaulting to  100
  Method for grid partitioning is not set. Defaulting to parallel hash+maxmin partitioning.
  Batch size limit is not set. Defaulting to    200
  By default, will store active basis functions for each batch.
  If in need of memory, prune_basis_once .false. can be used to disable this option.
  communication_type for Hartree potential was not specified.
  Defaulting to calc_hartree .
  Pulay mixer: Number of initial linear mixing iterations not set.
  Defaulting to    0 iterations.
  Work space size for distributed Hartree potential not set.
  Defaulting to   0.200000E+03 MB.
  Algorithm-dependent basis array size parameters:
  | n_max_pulay                         :       10
  Geometry relaxation not requested: no relaxation will be performed.
  Handling of forces: Unphysical translation and rotation will be removed from forces.
  No accuracy limit for integral partition fn. given. Defaulting to 0.1000E-14.
  No threshold value for u(r) in integrations given. Defaulting to 0.1000E-05.
  No accuracy for occupation numbers given. Defaulting to 0.1000E-07.
  No threshold value for occupation numbers given. Defaulting to 0.0000E+00.
  No accuracy for fermi level given. Defaulting to 0.1000E-19.
  Maximum # of iterations to find E_F not set. Defaulting to  200.
  Will not use alltoall communication since running on < 1024 CPUs.
  Partitioning for Hartree potential was not defined. Using partition_type for integrals.
  | Reporting present value of keyword multip_moments_threshold  :       0.10000000E-09
  | This value may affect high angular momentum components of the Hartree potential in periodic systems.
  No q(lm)/r^(l+1) cutoff set for long-range Hartree potential.
  | Using default value of  0.100000E-09 .
  | Verify using the multipole_threshold keyword.
  Defaulting to new monopole extrapolation.
  Density update method: Loop over occupied states selected for charge density update.
------------------------------------------------------------


------------------------------------------------------------
          Reading geometry description geometry.in.
------------------------------------------------------------
  Input structure read successfully.
  The structure contains       10 atoms,  and a total of         31.000 electrons.

  Input geometry:
  | No unit cell requested.
  | Atomic structure:
  |       Atom                x [A]            y [A]            z [A]
  |    1: Species O             -4.053030         0.065001        -1.525160
  |    2: Species H             -4.566710         0.974813        -1.912820
  |    3: Species H             -3.067820         0.330172        -1.477310
  |    4: Species H             -4.370360        -0.049164        -0.572274
  |    5: Species O             -5.293160         2.192130        -2.328800
  |    6: Species H             -4.829300         2.988660        -1.973850
  |    7: Species H             -5.428570         2.328640        -3.235170
  |    8: Species O             -5.628340         3.730740         1.385610
  |    9: Species H             -6.090650         4.418470         1.860350
  |   10: Species H             -5.158540         4.200260         0.615875
  |

  | The smallest distance between any two atoms is         0.92654057 AA.
  |
  | The first atom of this pair is atom number                      5 .
  | The second atom of this pair is atom number                     7 .

  Structure-dependent array size parameters: 
  | Maximum number of distinct radial functions  :       18
  | Maximum number of basis functions            :      222
  | Number of Kohn-Sham states (occupied + empty):       56
------------------------------------------------------------

------------------------------------------------------------
          Preparing all fixed parts of the calculation.
------------------------------------------------------------
  Determining machine precision:
    2.225073858507201E-308
  Setting up grids for atomic and cluster calculations.

  Creating wave function, potential, and density for free atoms.

  Species: H

  List of occupied orbitals and eigenvalues:
    n    l              occ      energy [Ha]    energy [eV]
    1    0           1.0000        -0.241408        -6.5691


  Species: O

  List of occupied orbitals and eigenvalues:
    n    l              occ      energy [Ha]    energy [eV]
    1    0           2.0000       -18.944147      -515.4965
    2    0           2.0000        -0.883529       -24.0421
    2    1           4.0000        -0.330176        -8.9845

  Creating fixed part of basis set: Ionic, confined, hydrogenic.
 
  H                    hydrogenic:
 
  List of hydrogenic basis orbitals: 
    n    l      effective z      eigenvalue [eV]  inner max. [A]     outer max. [A]     outer radius [A]   
    2    0         2.100000       -14.9965           0.193241           1.317192           5.372934
    2    1         3.500000       -41.6672           0.602363           0.602363           4.056010
    1    0         0.850000        -9.8292           0.624864           0.624864           5.372934
    2    1         3.700000       -46.5653           0.573616           0.573616           3.909951
    2    0         1.200000        -4.5995           0.334977           2.228160           5.505921
    3    2         7.000000       -74.0753           0.680692           0.680692           3.769152
 
 
  O                    hydrogenic:
 
  List of hydrogenic basis orbitals: 
    n    l      effective z      eigenvalue [eV]  inner max. [A]     outer max. [A]     outer radius [A]   
    2    1         1.800000       -11.0118           1.178546           1.178546           5.432516
    3    2         7.600000       -87.3182           0.624117           0.624117           3.541422
    3    0         6.400000       -61.9209           0.061166           1.081887           4.306510
    4    3        11.600000      -114.4238           0.731621           0.731621           3.584982
    3    1         6.200000       -58.1113           0.255677           1.030255           4.306510
    3    2         5.600000       -47.4081           0.847222           0.847222           4.413102
    5    4        17.600000      -168.5799           0.749730           0.749730           3.372413
    1    0         0.750000        -7.6499           0.705275           0.705275           5.366508
 

  Adding cutoff potential to free-atom effective potential.
  Creating atomic-like basis functions for current effective potential.

  Species H                   :

  List of atomic basis orbitals and eigenvalues:
    n    l      energy [Ha]    energy [eV]    outer radius [A]
    1    0        -0.241374        -6.5681       5.372934


  Species O                   :

  List of atomic basis orbitals and eigenvalues:
    n    l      energy [Ha]    energy [eV]    outer radius [A]
    1    0       -18.944147      -515.4965       1.415745
    2    0        -0.883529       -24.0421       5.048305
    2    1        -0.330173        -8.9845       5.301302

  Assembling full basis from fixed parts.
  | Species H :   atomic orbital   1 s accepted.
  | Species H :    hydro orbital   2 s accepted.
  | Species H :    hydro orbital   1 s accepted.
  | Species H :    hydro orbital   2 s accepted.
  | Species H :    hydro orbital   2 p accepted.
  | Species H :    hydro orbital   2 p accepted.
  | Species H :    hydro orbital   3 d accepted.
  | Species O :   atomic orbital   1 s accepted.
  | Species O :    hydro orbital   3 s accepted.
  | Species O :   atomic orbital   2 s accepted.
  | Species O :    hydro orbital   1 s accepted.
  | Species O :    hydro orbital   3 p accepted.
  | Species O :   atomic orbital   2 p accepted.
  | Species O :    hydro orbital   2 p accepted.
  | Species O :    hydro orbital   3 d accepted.
  | Species O :    hydro orbital   3 d accepted.
  | Species O :    hydro orbital   4 f accepted.
  | Species O :    hydro orbital   5 g accepted.
 
  Basis size parameters after reduction:
  | Total number of radial functions:       18
  | Total number of basis functions :      222
 
  Testing on-site integration grid accuracy.
  |  Species  Function  <phi|h_atom|phi> (log., in eV)  <phi|h_atom|phi> (rad., in eV)
           1        1                 -6.5683835025                 -6.5684759159
           1        2                 13.3711789951                 13.3708738703
           1        3                 23.6590910787                 23.6532055418
           1        4                 16.2963827186                 16.1870710655 ***
           1        5                 28.7627214838                 28.7627215090
           1        6                 59.5965249172                 59.5965950857
           1        7                 60.2220506392                 60.2220503827
           2        8               -515.4964576505               -515.4964530710
           2        9                 15.3030791347                 15.3030722972
           2       10                -21.7296094581                -21.7296135470
           2       11                 14.2969371730                 14.2969701621
           2       12                 21.0679693190                 21.0679697493
           2       13                 -2.3833606469                 -2.3833613176
           2       14                 13.7067136422                 13.7066766629
           2       15                 45.8013116808                 45.8013116965
           2       16                 52.2309815402                 52.2309831494
           2       17                 85.4120732416                 85.4120732763
           2       18                142.1019167745                142.1019167817
 * Note: Onsite integrals marked "***" above are less accurate than
 * onsite_accuracy_threshold =    0.03000 eV. Usually, this is harmless.
 * When in doubt, tighten the "radial" and/or "radial_multiplier" flags to check.

  Preparing densities etc. for the partition functions (integrals / Hartree potential).

  Preparations completed.
  max(cpu_time)          :      0.173 s.
  Wall clock time (cpu1) :      0.563 s.
------------------------------------------------------------

------------------------------------------------------------
          Begin self-consistency loop: Initialization.

          Date     :  20150727, Time     :  125232.604
------------------------------------------------------------

  Initializing index lists of integration centers etc. from given atomic structure:
  | Number of centers in hartree potential         :        10
  | Number of centers in hartree multipole         :        10
  | Number of centers in electron density summation:        10
  | Number of centers in basis integrals           :        10
  | Number of centers in integrals                 :        10
  Partitioning the integration grid into batches with parallel hashing+maxmin method.
  | Number of batches:     1337
  | Maximal batch size:     199
  | Minimal batch size:      49
  | Average batch size:      96.948
  | Standard deviation of batch sizes:      27.129

  Integration load balanced across     8 MPI tasks.
  Work distribution over tasks is as follows:
  Task     0 has      16237 integration points.
  Task     1 has      16159 integration points.
  Task     2 has      16135 integration points.
  Task     3 has      16212 integration points.
  Task     4 has      16168 integration points.
  Task     5 has      16229 integration points.
  Task     6 has      16172 integration points.
  Task     7 has      16308 integration points.
  Initializing partition tables, free-atom densities, potentials, etc. across the integration grid (initialize_grid_storage).
  | Net number of integration points:   129620
  | of which are non-zero points    :   129125
  Obtaining max. number of non-zero basis functions in each batch (get_n_compute_maxes).
  | Maximal number of non-zero basis functions:      220 in task     0
  | Maximal number of non-zero basis functions:      220 in task     1
  | Maximal number of non-zero basis functions:      220 in task     2
  | Maximal number of non-zero basis functions:      220 in task     3
  | Maximal number of non-zero basis functions:      221 in task     4
  | Maximal number of non-zero basis functions:      220 in task     5
  | Maximal number of non-zero basis functions:      220 in task     6
  | Maximal number of non-zero basis functions:      221 in task     7
  Integrating Hamiltonian matrix: batch-based integration.
  Time summed over all CPUs for integration: real work        2.687 s, elapsed        2.740 s
  Integrating overlap matrix.
  Time summed over all CPUs for integration: real work        1.399 s, elapsed        1.429 s

  Updating Kohn-Sham eigenvalues, eigenvectors, occupation numbers, and Fermi level.
  Solving generalized eigenproblem
  Updating Kohn-Sham eigenvalues and eigenfunctions.
  Transforming overlap matrix and checking for singularities.
  Overlap matrix is nonsingular:
  | Lowest eigenvalue:  0.344256E-03
  Solving real generalised eigenvalue problem by standard LAPACK (fast)
  Determining occupation numbers for Kohn-Sham eigenstates.
  | Chemical potential (Fermi level) in eV                 : -.26997455E+01
  | Error in electron count due to remaining E_F inaccuracy: 0.29037537E-08
  | Maximum occupation number of highest empty state:  0.00E+00

  Writing Kohn-Sham eigenvalues.

  State    Occupation    Eigenvalue [Ha]    Eigenvalue [eV]
      1       2.00000         -19.064880         -518.78178
      2       2.00000         -19.064859         -518.78120
      3       2.00000         -19.044494         -518.22706
      4       2.00000          -1.127482          -30.68033
      5       2.00000          -1.112500          -30.27267
      6       2.00000          -1.089072          -29.63515
      7       2.00000          -0.650817          -17.70962
      8       2.00000          -0.627439          -17.07349
      9       2.00000          -0.619882          -16.86785
     10       2.00000          -0.618201          -16.82211
     11       2.00000          -0.524827          -14.28127
     12       2.00000          -0.501479          -13.64594
     13       2.00000          -0.487184          -13.25694
     14       2.00000          -0.452524          -12.31381
     15       2.00000          -0.430130          -11.70443
     16       1.00000          -0.099214           -2.69975
     17       0.00000          -0.071676           -1.95039
     18       0.00000          -0.048847           -1.32919
     19       0.00000          -0.020310           -0.55267
     20       0.00000          -0.012456           -0.33896
     21       0.00000           0.027143            0.73860
     22       0.00000           0.047737            1.29898
     23       0.00000           0.073215            1.99229
     24       0.00000           0.076296            2.07611
     25       0.00000           0.086668            2.35837
     26       0.00000           0.089616            2.43859
     27       0.00000           0.103627            2.81983
     28       0.00000           0.106512            2.89833
     29       0.00000           0.112502            3.06133
     30       0.00000           0.129603            3.52669
     31       0.00000           0.144033            3.91934
     32       0.00000           0.171134            4.65679
     33       0.00000           0.173633            4.72480
     34       0.00000           0.197346            5.37005
     35       0.00000           0.226650            6.16747
     36       0.00000           0.251161            6.83444
     37       0.00000           0.268226            7.29879
     38       0.00000           0.294959            8.02625
     39       0.00000           0.325077            8.84579
     40       0.00000           0.335399            9.12667
     41       0.00000           0.356730            9.70712
     42       0.00000           0.366142            9.96323
     43       0.00000           0.372412           10.13385
     44       0.00000           0.395153           10.75265
     45       0.00000           0.412285           11.21885
     46       0.00000           0.432272           11.76273
     47       0.00000           0.441532           12.01471
     48       0.00000           0.463661           12.61687
     49       0.00000           0.495443           13.48170
     50       0.00000           0.506266           13.77619
     51       0.00000           0.532948           14.50225
     52       0.00000           0.548520           14.92598
     53       0.00000           0.620515           16.88506
     54       0.00000           0.630772           17.16418
     55       0.00000           0.717264           19.51773
     56       0.00000           0.747410           20.33806

  Highest occupied state (VBM) at     -2.69974554 eV
  | Occupation number:      1.00000000

  Lowest unoccupied state (CBM) at    -1.95039163 eV
  | Occupation number:      0.00000000

  Overall HOMO-LUMO gap:      0.74935391 eV.
  Calculating total energy contributions from superposition of free atom densities.

  Total energy components:
  | Sum of eigenvalues            :        -130.93075163 Ha       -3562.80702549 eV
  | XC energy correction          :         -27.69302226 Ha        -753.56547666 eV
  | XC potential correction       :          35.39178641 Ha         963.05950824 eV
  | Free-atom electrostatic energy:        -107.06760985 Ha       -2913.45789899 eV
  | Hartree energy correction     :           0.00000000 Ha           0.00000000 eV
  | van der Waals energy corr.    :           0.00000000 Ha           0.00000000 eV
  | Entropy correction            :          -0.00010367 Ha          -0.00282095 eV
  | ---------------------------
  | Total energy                  :        -230.29959732 Ha       -6266.77089290 eV
  | Total energy, T -> 0          :        -230.29970099 Ha       -6266.77371384 eV  <-- do not rely on this value for anything but (periodic) metals
  | Electronic free energy        :        -230.29980466 Ha       -6266.77653479 eV

  Derived energy quantities:
  | Kinetic energy                :         228.16098336 Ha        6208.57624612 eV
  | Electrostatic energy          :        -430.76755842 Ha      -11721.78166236 eV
  | Energy correction for multipole
  | error in Hartree potential    :           0.00000000 Ha           0.00000000 eV
  | Sum of eigenvalues per atom                           :        -356.28070255 eV
  | Total energy (T->0) per atom                          :        -626.67737138 eV  <-- do not rely on this value for anything but (periodic) metals
  | Electronic free energy per atom                       :        -626.67765348 eV
  Initialize hartree_potential_storage
  Max. number of atoms included in rho_multipole:           10

  End scf initialization - timings             :  max(cpu_time)    wall_clock(cpu1)
  | Time for scf. initialization               :        0.802 s           0.802 s
  | Boundary condition initialization          :        0.000 s           0.001 s
  | Integration                                :        0.523 s           0.523 s
  | Solution of K.-S. eqns.                    :        0.074 s           0.074 s
  | Grid partitioning                          :        0.097 s           0.096 s
  | Preloading free-atom quantities on grid    :        0.014 s           0.013 s
  | Free-atom superposition energy             :        0.034 s           0.034 s
  | Total energy evaluation                    :        0.000 s           0.000 s
------------------------------------------------------------

------------------------------------------------------------
          Begin self-consistency iteration #    1

  Date     :  20150727, Time     :  125233.407
------------------------------------------------------------
  Evaluating new KS density.
  Integration grid: deviation in total charge (<rho> - N_e) =   2.903764E-09
  Pulay mixing of updated and previous charge densities.

  Evaluating partitioned Hartree potential by multipole expansion.
  | Analytical far-field extrapolation by fixed multipoles:
  | Hartree multipole sum: apparent total charge =  -0.221027E-06
  Summing up the Hartree potential.
  Time summed over all CPUs for potential: real work        1.145 s, elapsed        1.155 s
  | RMS charge density error from multipole expansion :   0.131645E-02

  Integrating Hamiltonian matrix: batch-based integration.
  Time summed over all CPUs for integration: real work        2.679 s, elapsed        2.708 s

  Updating Kohn-Sham eigenvalues, eigenvectors, occupation numbers, and Fermi level.
  Solving generalized eigenproblem
  Updating Kohn-Sham eigenvalues and eigenfunctions.
  Solving real generalised eigenvalue problem by standard LAPACK (fast)
  Determining occupation numbers for Kohn-Sham eigenstates.
  | Chemical potential (Fermi level) in eV                 : -.25567382E+01
  | Error in electron count due to remaining E_F inaccuracy: 0.12789769E-12
  | Maximum occupation number of highest empty state:  0.00E+00

  Writing Kohn-Sham eigenvalues.

  State    Occupation    Eigenvalue [Ha]    Eigenvalue [eV]
      1       2.00000         -19.016358         -517.46144
      2       2.00000         -18.994607         -516.86955
      3       2.00000         -18.961581         -515.97088
      4       2.00000          -1.102687          -30.00564
      5       2.00000          -1.083224          -29.47604
      6       2.00000          -1.046460          -28.47563
      7       2.00000          -0.622417          -16.93684
      8       2.00000          -0.610313          -16.60745
      9       2.00000          -0.599829          -16.32218
     10       2.00000          -0.581449          -15.82204
     11       2.00000          -0.496013          -13.49719
     12       2.00000          -0.462202          -12.57715
     13       2.00000          -0.458997          -12.48995
     14       2.00000          -0.419210          -11.40727
     15       2.00000          -0.385763          -10.49715
     16       1.00000          -0.093958           -2.55674
     17       0.00000          -0.065046           -1.76998
     18       0.00000          -0.042547           -1.15776
     19       0.00000          -0.017034           -0.46352
     20       0.00000          -0.005880           -0.15999
     21       0.00000           0.035443            0.96446
     22       0.00000           0.051780            1.40900
     23       0.00000           0.078429            2.13417
     24       0.00000           0.080637            2.19425
     25       0.00000           0.094738            2.57795
     26       0.00000           0.095086            2.58742
     27       0.00000           0.110746            3.01354
     28       0.00000           0.114346            3.11151
     29       0.00000           0.120137            3.26910
     30       0.00000           0.134655            3.66414
     31       0.00000           0.151091            4.11140
     32       0.00000           0.177383            4.82684
     33       0.00000           0.180031            4.89889
     34       0.00000           0.203680            5.54243
     35       0.00000           0.231223            6.29191
     36       0.00000           0.253927            6.90971
     37       0.00000           0.275022            7.48374
     38       0.00000           0.299004            8.13632
     39       0.00000           0.330199            8.98516
     40       0.00000           0.343667            9.35165
     41       0.00000           0.359443            9.78094
     42       0.00000           0.373135           10.15352
     43       0.00000           0.379808           10.33509
     44       0.00000           0.397951           10.82880
     45       0.00000           0.421031           11.45683
     46       0.00000           0.439408           11.95689
     47       0.00000           0.452283           12.30726
     48       0.00000           0.469903           12.78671
     49       0.00000           0.501754           13.65343
     50       0.00000           0.518565           14.11087
     51       0.00000           0.542543           14.76335
     52       0.00000           0.555276           15.10983
     53       0.00000           0.628861           17.11217
     54       0.00000           0.636898           17.33087
     55       0.00000           0.729066           19.83890
     56       0.00000           0.755383           20.55500

  Highest occupied state (VBM) at     -2.55673823 eV
  | Occupation number:      1.00000000

  Lowest unoccupied state (CBM) at    -1.76997899 eV
  | Occupation number:      0.00000000

  Overall HOMO-LUMO gap:      0.78675924 eV.

  Total energy components:
  | Sum of eigenvalues            :        -129.77617975 Ha       -3531.38952618 eV
  | XC energy correction          :         -27.82069844 Ha        -757.03972219 eV
  | XC potential correction       :          35.55862085 Ha         967.59930437 eV
  | Free-atom electrostatic energy:        -107.06760985 Ha       -2913.45789899 eV
  | Hartree energy correction     :          -1.12253726 Ha         -30.54579301 eV
  | van der Waals energy corr.    :           0.00000000 Ha           0.00000000 eV
  | Entropy correction            :          -0.00010367 Ha          -0.00282095 eV
  | ---------------------------
  | Total energy                  :        -230.22840444 Ha       -6264.83363599 eV
  | Total energy, T -> 0          :        -230.22850811 Ha       -6264.83645694 eV  <-- do not rely on this value for anything but (periodic) metals
  | Electronic free energy        :        -230.22861177 Ha       -6264.83927789 eV

  Derived energy quantities:
  | Kinetic energy                :         228.95513662 Ha        6230.18625588 eV
  | Electrostatic energy          :        -431.36284263 Ha      -11737.98016968 eV
  | Energy correction for multipole
  | error in Hartree potential    :           0.00032569 Ha           0.00886244 eV
  | Sum of eigenvalues per atom                           :        -353.13895262 eV
  | Total energy (T->0) per atom                          :        -626.48364569 eV  <-- do not rely on this value for anything but (periodic) metals
  | Electronic free energy per atom                       :        -626.48392779 eV

  Self-consistency convergence accuracy:
  | Change of charge density      : 0.4875E+00
  | Change of sum of eigenvalues  : 0.3142E+02 eV
  | Change of total energy        : 0.1937E+01 eV

  End self-consistency iteration #     1       :  max(cpu_time)    wall_clock(cpu1)
  | Time for this iteration                    :        0.743 s           0.742 s
  | Charge density update                      :        0.233 s           0.233 s
  | Density mixing                             :        0.003 s           0.002 s
  | Hartree multipole update                   :        0.003 s           0.004 s
  | Hartree multipole summation                :        0.146 s           0.145 s
  | Integration                                :        0.339 s           0.339 s
  | Solution of K.-S. eqns.                    :        0.018 s           0.018 s
  | Total energy evaluation                    :        0.000 s           0.000 s
------------------------------------------------------------

------------------------------------------------------------
          Begin self-consistency iteration #    2

  Date     :  20150727, Time     :  125234.149
------------------------------------------------------------
  Evaluating new KS density.
  Integration grid: deviation in total charge (<rho> - N_e) =   1.350031E-13
  Pulay mixing of updated and previous charge densities.

  Evaluating partitioned Hartree potential by multipole expansion.
  | Analytical far-field extrapolation by fixed multipoles:
  | Hartree multipole sum: apparent total charge =  -0.187065E-05
  Summing up the Hartree potential.
  Time summed over all CPUs for potential: real work        1.145 s, elapsed        1.155 s
  | RMS charge density error from multipole expansion :   0.530902E-02

  Integrating Hamiltonian matrix: batch-based integration.
  Time summed over all CPUs for integration: real work        2.676 s, elapsed        2.712 s

  Updating Kohn-Sham eigenvalues, eigenvectors, occupation numbers, and Fermi level.
  Solving generalized eigenproblem
  Updating Kohn-Sham eigenvalues and eigenfunctions.
  Solving real generalised eigenvalue problem by standard LAPACK (fast)
  Determining occupation numbers for Kohn-Sham eigenstates.
  | Chemical potential (Fermi level) in eV                 : -.22313498E+01
  | Error in electron count due to remaining E_F inaccuracy: 0.42632564E-13
  | Maximum occupation number of highest empty state:  0.00E+00

  Highest occupied state (VBM) at     -2.23134977 eV
  | Occupation number:      1.00000000

  Lowest unoccupied state (CBM) at    -1.34767808 eV
  | Occupation number:      0.00000000

  Overall HOMO-LUMO gap:      0.88367170 eV.

  Total energy components:
  | Sum of eigenvalues            :        -127.05354497 Ha       -3457.30286413 eV
  | XC energy correction          :         -28.13821716 Ha        -765.67984639 eV
  | XC potential correction       :          35.97246808 Ha         978.86066036 eV
  | Free-atom electrostatic energy:        -107.06760985 Ha       -2913.45789899 eV
  | Hartree energy correction     :          -3.86240356 Ha        -105.10134841 eV
  | van der Waals energy corr.    :           0.00000000 Ha           0.00000000 eV
  | Entropy correction            :          -0.00010367 Ha          -0.00282095 eV
  | ---------------------------
  | Total energy                  :        -230.14930745 Ha       -6262.68129756 eV
  | Total energy, T -> 0          :        -230.14941112 Ha       -6262.68411851 eV  <-- do not rely on this value for anything but (periodic) metals
  | Electronic free energy        :        -230.14951479 Ha       -6262.68693945 eV

  Derived energy quantities:
  | Kinetic energy                :         230.59575844 Ha        6274.82984696 eV
  | Electrostatic energy          :        -432.60684873 Ha      -11771.83129813 eV
  | Energy correction for multipole
  | error in Hartree potential    :           0.00084047 Ha           0.02287025 eV
  | Sum of eigenvalues per atom                           :        -345.73028641 eV
  | Total energy (T->0) per atom                          :        -626.26841185 eV  <-- do not rely on this value for anything but (periodic) metals
  | Electronic free energy per atom                       :        -626.26869395 eV

  Self-consistency convergence accuracy:
  | Change of charge density      : 0.3706E+00
  | Change of sum of eigenvalues  : 0.7409E+02 eV
  | Change of total energy        : 0.2152E+01 eV

  End self-consistency iteration #     2       :  max(cpu_time)    wall_clock(cpu1)
  | Time for this iteration                    :        0.742 s           0.742 s
  | Charge density update                      :        0.231 s           0.231 s
  | Density mixing                             :        0.003 s           0.003 s
  | Hartree multipole update                   :        0.004 s           0.004 s
  | Hartree multipole summation                :        0.145 s           0.145 s
  | Integration                                :        0.340 s           0.340 s
  | Solution of K.-S. eqns.                    :        0.018 s           0.018 s
  | Total energy evaluation                    :        0.000 s           0.000 s
------------------------------------------------------------

------------------------------------------------------------
          Begin self-consistency iteration #    3

  Date     :  20150727, Time     :  125234.891
------------------------------------------------------------
  Evaluating new KS density.
  Integration grid: deviation in total charge (<rho> - N_e) =   4.618528E-14
  Pulay mixing of updated and previous charge densities.

  Evaluating partitioned Hartree potential by multipole expansion.
  | Analytical far-field extrapolation by fixed multipoles:
  | Hartree multipole sum: apparent total charge =  -0.173713E-05
  Summing up the Hartree potential.
  Time summed over all CPUs for potential: real work        1.145 s, elapsed        1.155 s
  | RMS charge density error from multipole expansion :   0.102934E-01

  Integrating Hamiltonian matrix: batch-based integration.
  Time summed over all CPUs for integration: real work        2.678 s, elapsed        2.719 s

  Updating Kohn-Sham eigenvalues, eigenvectors, occupation numbers, and Fermi level.
  Solving generalized eigenproblem
  Updating Kohn-Sham eigenvalues and eigenfunctions.
  Solving real generalised eigenvalue problem by standard LAPACK (fast)
  Determining occupation numbers for Kohn-Sham eigenstates.
  | Chemical potential (Fermi level) in eV                 : -.22118035E+01
  | Error in electron count due to remaining E_F inaccuracy: -.61486816E-10
  | Maximum occupation number of highest empty state:  0.00E+00

  Highest occupied state (VBM) at     -7.66802396 eV
  | Occupation number:      2.00000000

  Lowest unoccupied state (CBM) at    -2.21180355 eV
  | Occupation number:      1.00000000

  Overall HOMO-LUMO gap:      5.45622041 eV.

  Total energy components:
  | Sum of eigenvalues            :        -127.27652239 Ha       -3463.37038856 eV
  | XC energy correction          :         -28.12914747 Ha        -765.43304753 eV
  | XC potential correction       :          35.95558375 Ha         978.40121446 eV
  | Free-atom electrostatic energy:        -107.06760985 Ha       -2913.45789899 eV
  | Hartree energy correction     :          -3.63036013 Ha         -98.78712528 eV
  | van der Waals energy corr.    :           0.00000000 Ha           0.00000000 eV
  | Entropy correction            :          -0.00010367 Ha          -0.00282095 eV
  | ---------------------------
  | Total energy                  :        -230.14805608 Ha       -6262.64724590 eV
  | Total energy, T -> 0          :        -230.14815975 Ha       -6262.65006685 eV  <-- do not rely on this value for anything but (periodic) metals
  | Electronic free energy        :        -230.14826342 Ha       -6262.65288779 eV

  Derived energy quantities:
  | Kinetic energy                :         229.67914699 Ha        6249.88758050 eV
  | Electrostatic energy          :        -431.69805560 Ha      -11747.10177887 eV
  | Energy correction for multipole
  | error in Hartree potential    :          -0.00050975 Ha          -0.01387105 eV
  | Sum of eigenvalues per atom                           :        -346.33703886 eV
  | Total energy (T->0) per atom                          :        -626.26500668 eV  <-- do not rely on this value for anything but (periodic) metals
  | Electronic free energy per atom                       :        -626.26528878 eV

  Self-consistency convergence accuracy:
  | Change of charge density      : 0.1839E+00
  | Change of sum of eigenvalues  : -.6068E+01 eV
  | Change of total energy        : 0.3405E-01 eV

  End self-consistency iteration #     3       :  max(cpu_time)    wall_clock(cpu1)
  | Time for this iteration                    :        0.744 s           0.744 s
  | Charge density update                      :        0.231 s           0.231 s
  | Density mixing                             :        0.005 s           0.005 s
  | Hartree multipole update                   :        0.003 s           0.003 s
  | Hartree multipole summation                :        0.146 s           0.145 s
  | Integration                                :        0.340 s           0.340 s
  | Solution of K.-S. eqns.                    :        0.018 s           0.018 s
  | Total energy evaluation                    :        0.000 s           0.000 s
------------------------------------------------------------

------------------------------------------------------------
          Begin self-consistency iteration #    4

  Date     :  20150727, Time     :  125235.635
------------------------------------------------------------
  Evaluating new KS density.
  Integration grid: deviation in total charge (<rho> - N_e) =  -6.149037E-11
  Pulay mixing of updated and previous charge densities.

  Evaluating partitioned Hartree potential by multipole expansion.
  | Analytical far-field extrapolation by fixed multipoles:
  | Hartree multipole sum: apparent total charge =  -0.195634E-05
  Summing up the Hartree potential.
  Time summed over all CPUs for potential: real work        1.144 s, elapsed        1.155 s
  | RMS charge density error from multipole expansion :   0.139353E-01

  Integrating Hamiltonian matrix: batch-based integration.
  Time summed over all CPUs for integration: real work        2.665 s, elapsed        2.706 s

  Updating Kohn-Sham eigenvalues, eigenvectors, occupation numbers, and Fermi level.
  Solving generalized eigenproblem
  Updating Kohn-Sham eigenvalues and eigenfunctions.
  Solving real generalised eigenvalue problem by standard LAPACK (fast)
  Determining occupation numbers for Kohn-Sham eigenstates.
  | Chemical potential (Fermi level) in eV                 : -.21448129E+01
  | Error in electron count due to remaining E_F inaccuracy: 0.00000000E+00
  | Maximum occupation number of highest empty state:  0.00E+00

  Highest occupied state (VBM) at     -2.14481291 eV
  | Occupation number:      1.00000000

  Lowest unoccupied state (CBM) at    -2.14481291 eV
  | Occupation number:      1.00000000

  Overall HOMO-LUMO gap:      0.00000000 eV.

  Total energy components:
  | Sum of eigenvalues            :        -126.63325956 Ha       -3445.86631635 eV
  | XC energy correction          :         -28.22441097 Ha        -768.02529910 eV
  | XC potential correction       :          36.07748656 Ha         981.71835869 eV
  | Free-atom electrostatic energy:        -107.06760985 Ha       -2913.45789899 eV
  | Hartree energy correction     :          -4.29736626 Ha        -116.93728577 eV
  | van der Waals energy corr.    :           0.00000000 Ha           0.00000000 eV
  | Entropy correction            :          -0.00010367 Ha          -0.00282095 eV
  | ---------------------------
  | Total energy                  :        -230.14516007 Ha       -6262.56844151 eV
  | Total energy, T -> 0          :        -230.14526374 Ha       -6262.57126246 eV  <-- do not rely on this value for anything but (periodic) metals
  | Electronic free energy        :        -230.14536741 Ha       -6262.57408341 eV

  Derived energy quantities:
  | Kinetic energy                :         229.66203376 Ha        6249.42190583 eV
  | Electrostatic energy          :        -431.58278287 Ha      -11743.96504824 eV
  | Energy correction for multipole
  | error in Hartree potential    :          -0.00110358 Ha          -0.03003000 eV
  | Sum of eigenvalues per atom                           :        -344.58663163 eV
  | Total energy (T->0) per atom                          :        -626.25712625 eV  <-- do not rely on this value for anything but (periodic) metals
  | Electronic free energy per atom                       :        -626.25740834 eV

  Self-consistency convergence accuracy:
  | Change of charge density      : 0.8765E-01
  | Change of sum of eigenvalues  : 0.1750E+02 eV
  | Change of total energy        : 0.7880E-01 eV

  End self-consistency iteration #     4       :  max(cpu_time)    wall_clock(cpu1)
  | Time for this iteration                    :        0.741 s           0.741 s
  | Charge density update                      :        0.229 s           0.229 s
  | Density mixing                             :        0.005 s           0.005 s
  | Hartree multipole update                   :        0.003 s           0.004 s
  | Hartree multipole summation                :        0.145 s           0.145 s
  | Integration                                :        0.339 s           0.339 s
  | Solution of K.-S. eqns.                    :        0.018 s           0.018 s
  | Total energy evaluation                    :        0.000 s           0.000 s
------------------------------------------------------------

------------------------------------------------------------
          Begin self-consistency iteration #    5

  Date     :  20150727, Time     :  125236.376
------------------------------------------------------------
  Evaluating new KS density.
  Integration grid: deviation in total charge (<rho> - N_e) =   7.105427E-15
  Pulay mixing of updated and previous charge densities.

  Evaluating partitioned Hartree potential by multipole expansion.
  | Analytical far-field extrapolation by fixed multipoles:
  | Hartree multipole sum: apparent total charge =  -0.186342E-05
  Summing up the Hartree potential.
  Time summed over all CPUs for potential: real work        1.144 s, elapsed        1.155 s
  | RMS charge density error from multipole expansion :   0.139797E-01

  Integrating Hamiltonian matrix: batch-based integration.
  Time summed over all CPUs for integration: real work        2.663 s, elapsed        2.692 s

  Updating Kohn-Sham eigenvalues, eigenvectors, occupation numbers, and Fermi level.
  Solving generalized eigenproblem
  Updating Kohn-Sham eigenvalues and eigenfunctions.
  Solving real generalised eigenvalue problem by standard LAPACK (fast)
  Determining occupation numbers for Kohn-Sham eigenstates.
  | Chemical potential (Fermi level) in eV                 : -.21790545E+01
  | Error in electron count due to remaining E_F inaccuracy: -.56069389E-08
  | Maximum occupation number of highest empty state:  0.00E+00

  Highest occupied state (VBM) at     -6.84927522 eV
  | Occupation number:      2.00000000

  Lowest unoccupied state (CBM) at    -2.17905453 eV
  | Occupation number:      0.99999999

  Overall HOMO-LUMO gap:      4.67022069 eV.

  Total energy components:
  | Sum of eigenvalues            :        -126.71751773 Ha       -3448.15909792 eV
  | XC energy correction          :         -28.21419822 Ha        -767.74739600 eV
  | XC potential correction       :          36.06389553 Ha         981.34852780 eV
  | Free-atom electrostatic energy:        -107.06760985 Ha       -2913.45789899 eV
  | Hartree energy correction     :          -4.20949562 Ha        -114.54620398 eV
  | van der Waals energy corr.    :           0.00000000 Ha           0.00000000 eV
  | Entropy correction            :          -0.00010367 Ha          -0.00282095 eV
  | ---------------------------
  | Total energy                  :        -230.14492589 Ha       -6262.56206909 eV
  | Total energy, T -> 0          :        -230.14502956 Ha       -6262.56489003 eV  <-- do not rely on this value for anything but (periodic) metals
  | Electronic free energy        :        -230.14513322 Ha       -6262.56771098 eV

  Derived energy quantities:
  | Kinetic energy                :         229.62469233 Ha        6248.40579357 eV
  | Electrostatic energy          :        -431.55542000 Ha      -11743.22046666 eV
  | Energy correction for multipole
  | error in Hartree potential    :          -0.00117622 Ha          -0.03200663 eV
  | Sum of eigenvalues per atom                           :        -344.81590979 eV
  | Total energy (T->0) per atom                          :        -626.25648900 eV  <-- do not rely on this value for anything but (periodic) metals
  | Electronic free energy per atom                       :        -626.25677110 eV

  Self-consistency convergence accuracy:
  | Change of charge density      : 0.1996E-01
  | Change of sum of eigenvalues  : -.2293E+01 eV
  | Change of total energy        : 0.6372E-02 eV

  End self-consistency iteration #     5       :  max(cpu_time)    wall_clock(cpu1)
  | Time for this iteration                    :        0.742 s           0.742 s
  | Charge density update                      :        0.231 s           0.231 s
  | Density mixing                             :        0.006 s           0.006 s
  | Hartree multipole update                   :        0.004 s           0.004 s
  | Hartree multipole summation                :        0.145 s           0.145 s
  | Integration                                :        0.338 s           0.337 s
  | Solution of K.-S. eqns.                    :        0.018 s           0.018 s
  | Total energy evaluation                    :        0.000 s           0.000 s
------------------------------------------------------------

------------------------------------------------------------
          Begin self-consistency iteration #    6

  Date     :  20150727, Time     :  125237.118
------------------------------------------------------------
  Evaluating new KS density.
  Integration grid: deviation in total charge (<rho> - N_e) =  -5.606942E-09
  Pulay mixing of updated and previous charge densities.

  Evaluating partitioned Hartree potential by multipole expansion.
  | Analytical far-field extrapolation by fixed multipoles:
  | Hartree multipole sum: apparent total charge =  -0.184783E-05
  Summing up the Hartree potential.
  Time summed over all CPUs for potential: real work        1.144 s, elapsed        1.155 s
  | RMS charge density error from multipole expansion :   0.142440E-01

  Integrating Hamiltonian matrix: batch-based integration.
  Time summed over all CPUs for integration: real work        2.661 s, elapsed        2.689 s

  Updating Kohn-Sham eigenvalues, eigenvectors, occupation numbers, and Fermi level.
  Solving generalized eigenproblem
  Updating Kohn-Sham eigenvalues and eigenfunctions.
  Solving real generalised eigenvalue problem by standard LAPACK (fast)
  Determining occupation numbers for Kohn-Sham eigenstates.
  | Chemical potential (Fermi level) in eV                 : -.21872002E+01
  | Error in electron count due to remaining E_F inaccuracy: 0.00000000E+00
  | Maximum occupation number of highest empty state:  0.00E+00

  Highest occupied state (VBM) at     -2.18720021 eV
  | Occupation number:      1.00000000

  Lowest unoccupied state (CBM) at    -2.18720021 eV
  | Occupation number:      1.00000000

  Overall HOMO-LUMO gap:      0.00000000 eV.

  Total energy components:
  | Sum of eigenvalues            :        -126.71132987 Ha       -3447.99071758 eV
  | XC energy correction          :         -28.21650995 Ha        -767.81030146 eV
  | XC potential correction       :          36.06665837 Ha         981.42370842 eV
  | Free-atom electrostatic energy:        -107.06760985 Ha       -2913.45789899 eV
  | Hartree energy correction     :          -4.21616201 Ha        -114.72760554 eV
  | van der Waals energy corr.    :           0.00000000 Ha           0.00000000 eV
  | Entropy correction            :          -0.00010367 Ha          -0.00282095 eV
  | ---------------------------
  | Total energy                  :        -230.14495331 Ha       -6262.56281514 eV
  | Total energy, T -> 0          :        -230.14505697 Ha       -6262.56563609 eV  <-- do not rely on this value for anything but (periodic) metals
  | Electronic free energy        :        -230.14516064 Ha       -6262.56845704 eV

  Derived energy quantities:
  | Kinetic energy                :         229.62380672 Ha        6248.38169512 eV
  | Electrostatic energy          :        -431.55225008 Ha      -11743.13420881 eV
  | Energy correction for multipole
  | error in Hartree potential    :          -0.00123486 Ha          -0.03360231 eV
  | Sum of eigenvalues per atom                           :        -344.79907176 eV
  | Total energy (T->0) per atom                          :        -626.25656361 eV  <-- do not rely on this value for anything but (periodic) metals
  | Electronic free energy per atom                       :        -626.25684570 eV

  Self-consistency convergence accuracy:
  | Change of charge density      : 0.7312E-02
  | Change of sum of eigenvalues  : 0.1684E+00 eV
  | Change of total energy        : -.7461E-03 eV

  End self-consistency iteration #     6       :  max(cpu_time)    wall_clock(cpu1)
  | Time for this iteration                    :        0.742 s           0.741 s
  | Charge density update                      :        0.230 s           0.230 s
  | Density mixing                             :        0.007 s           0.007 s
  | Hartree multipole update                   :        0.004 s           0.004 s
  | Hartree multipole summation                :        0.145 s           0.145 s
  | Integration                                :        0.337 s           0.337 s
  | Solution of K.-S. eqns.                    :        0.018 s           0.018 s
  | Total energy evaluation                    :        0.000 s           0.000 s
------------------------------------------------------------

------------------------------------------------------------
          Begin self-consistency iteration #    7

  Date     :  20150727, Time     :  125237.859
------------------------------------------------------------
  Evaluating new KS density.
  Integration grid: deviation in total charge (<rho> - N_e) =   0.000000E+00
  Pulay mixing of updated and previous charge densities.

  Evaluating partitioned Hartree potential by multipole expansion.
  | Analytical far-field extrapolation by fixed multipoles:
  | Hartree multipole sum: apparent total charge =  -0.185920E-05
  Summing up the Hartree potential.
  Time summed over all CPUs for potential: real work        1.144 s, elapsed        1.155 s
  | RMS charge density error from multipole expansion :   0.142731E-01

  Integrating Hamiltonian matrix: batch-based integration.
  Time summed over all CPUs for integration: real work        2.662 s, elapsed        2.694 s

  Updating Kohn-Sham eigenvalues, eigenvectors, occupation numbers, and Fermi level.
  Solving generalized eigenproblem
  Updating Kohn-Sham eigenvalues and eigenfunctions.
  Solving real generalised eigenvalue problem by standard LAPACK (fast)
  Determining occupation numbers for Kohn-Sham eigenstates.
  | Chemical potential (Fermi level) in eV                 : -.21924611E+01
  | Error in electron count due to remaining E_F inaccuracy: -.15009434E-08
  | Maximum occupation number of highest empty state:  0.00E+00

  Highest occupied state (VBM) at     -6.85261494 eV
  | Occupation number:      2.00000000

  Lowest unoccupied state (CBM) at    -2.19246109 eV
  | Occupation number:      1.00000000

  Overall HOMO-LUMO gap:      4.66015385 eV.

  Total energy components:
  | Sum of eigenvalues            :        -126.73176401 Ha       -3448.54675877 eV
  | XC energy correction          :         -28.21437736 Ha        -767.75227075 eV
  | XC potential correction       :          36.06378357 Ha         981.34548131 eV
  | Free-atom electrostatic energy:        -107.06760985 Ha       -2913.45789899 eV
  | Hartree energy correction     :          -4.19497006 Ha        -114.15094328 eV
  | van der Waals energy corr.    :           0.00000000 Ha           0.00000000 eV
  | Entropy correction            :          -0.00010367 Ha          -0.00282095 eV
  | ---------------------------
  | Total energy                  :        -230.14493770 Ha       -6262.56239047 eV
  | Total energy, T -> 0          :        -230.14504137 Ha       -6262.56521142 eV  <-- do not rely on this value for anything but (periodic) metals
  | Electronic free energy        :        -230.14514504 Ha       -6262.56803237 eV

  Derived energy quantities:
  | Kinetic energy                :         229.64256593 Ha        6248.89215908 eV
  | Electrostatic energy          :        -431.57312627 Ha      -11743.70227880 eV
  | Energy correction for multipole
  | error in Hartree potential    :          -0.00123709 Ha          -0.03366293 eV
  | Sum of eigenvalues per atom                           :        -344.85467588 eV
  | Total energy (T->0) per atom                          :        -626.25652114 eV  <-- do not rely on this value for anything but (periodic) metals
  | Electronic free energy per atom                       :        -626.25680324 eV

  Self-consistency convergence accuracy:
  | Change of charge density      : 0.5141E-02
  | Change of sum of eigenvalues  : -.5560E+00 eV
  | Change of total energy        : 0.4247E-03 eV

  End self-consistency iteration #     7       :  max(cpu_time)    wall_clock(cpu1)
  | Time for this iteration                    :        0.743 s           0.744 s
  | Charge density update                      :        0.230 s           0.230 s
  | Density mixing                             :        0.008 s           0.008 s
  | Hartree multipole update                   :        0.004 s           0.003 s
  | Hartree multipole summation                :        0.145 s           0.145 s
  | Integration                                :        0.337 s           0.338 s
  | Solution of K.-S. eqns.                    :        0.019 s           0.018 s
  | Total energy evaluation                    :        0.000 s           0.000 s
------------------------------------------------------------

------------------------------------------------------------
          Begin self-consistency iteration #    8

  Date     :  20150727, Time     :  125238.603
------------------------------------------------------------
  Evaluating new KS density.
  Integration grid: deviation in total charge (<rho> - N_e) =  -1.500936E-09
  Pulay mixing of updated and previous charge densities.

  Evaluating partitioned Hartree potential by multipole expansion.
  | Analytical far-field extrapolation by fixed multipoles:
  | Hartree multipole sum: apparent total charge =  -0.184273E-05
  Summing up the Hartree potential.
  Time summed over all CPUs for potential: real work        1.144 s, elapsed        1.155 s
  | RMS charge density error from multipole expansion :   0.142430E-01

  Integrating Hamiltonian matrix: batch-based integration.
  Time summed over all CPUs for integration: real work        2.661 s, elapsed        2.701 s

  Updating Kohn-Sham eigenvalues, eigenvectors, occupation numbers, and Fermi level.
  Solving generalized eigenproblem
  Updating Kohn-Sham eigenvalues and eigenfunctions.
  Solving real generalised eigenvalue problem by standard LAPACK (fast)
  Determining occupation numbers for Kohn-Sham eigenstates.
  | Chemical potential (Fermi level) in eV                 : -.21987883E+01
  | Error in electron count due to remaining E_F inaccuracy: 0.00000000E+00
  | Maximum occupation number of highest empty state:  0.00E+00

  Highest occupied state (VBM) at     -2.19878834 eV
  | Occupation number:      1.00000000

  Lowest unoccupied state (CBM) at    -2.19878834 eV
  | Occupation number:      1.00000000

  Overall HOMO-LUMO gap:      0.00000000 eV.

  Total energy components:
  | Sum of eigenvalues            :        -126.76055797 Ha       -3449.33028241 eV
  | XC energy correction          :         -28.21105017 Ha        -767.66173322 eV
  | XC potential correction       :          36.05939342 Ha         981.22601922 eV
  | Free-atom electrostatic energy:        -107.06760985 Ha       -2913.45789899 eV
  | Hartree energy correction     :          -4.16510677 Ha        -113.33832176 eV
  | van der Waals energy corr.    :           0.00000000 Ha           0.00000000 eV
  | Entropy correction            :          -0.00010367 Ha          -0.00282095 eV
  | ---------------------------
  | Total energy                  :        -230.14493133 Ha       -6262.56221716 eV
  | Total energy, T -> 0          :        -230.14503500 Ha       -6262.56503810 eV  <-- do not rely on this value for anything but (periodic) metals
  | Electronic free energy        :        -230.14513867 Ha       -6262.56785905 eV

  Derived energy quantities:
  | Kinetic energy                :         229.65751231 Ha        6249.29887067 eV
  | Electrostatic energy          :        -431.59139347 Ha      -11744.19935460 eV
  | Energy correction for multipole
  | error in Hartree potential    :          -0.00123524 Ha          -0.03361262 eV
  | Sum of eigenvalues per atom                           :        -344.93302824 eV
  | Total energy (T->0) per atom                          :        -626.25650381 eV  <-- do not rely on this value for anything but (periodic) metals
  | Electronic free energy per atom                       :        -626.25678591 eV

  Self-consistency convergence accuracy:
  | Change of charge density      : 0.2812E-02
  | Change of sum of eigenvalues  : -.7835E+00 eV
  | Change of total energy        : 0.1733E-03 eV

  End self-consistency iteration #     8       :  max(cpu_time)    wall_clock(cpu1)
  | Time for this iteration                    :        0.744 s           0.743 s
  | Charge density update                      :        0.229 s           0.228 s
  | Density mixing                             :        0.009 s           0.009 s
  | Hartree multipole update                   :        0.004 s           0.004 s
  | Hartree multipole summation                :        0.145 s           0.145 s
  | Integration                                :        0.338 s           0.338 s
  | Solution of K.-S. eqns.                    :        0.018 s           0.018 s
  | Total energy evaluation                    :        0.000 s           0.000 s
------------------------------------------------------------

------------------------------------------------------------
          Begin self-consistency iteration #    9

  Date     :  20150727, Time     :  125239.346
------------------------------------------------------------
  Evaluating new KS density.
  Integration grid: deviation in total charge (<rho> - N_e) =   3.552714E-15
  Pulay mixing of updated and previous charge densities.

  Evaluating partitioned Hartree potential by multipole expansion.
  | Analytical far-field extrapolation by fixed multipoles:
  | Hartree multipole sum: apparent total charge =  -0.184121E-05
  Summing up the Hartree potential.
  Time summed over all CPUs for potential: real work        1.144 s, elapsed        1.155 s
  | RMS charge density error from multipole expansion :   0.142486E-01

  Integrating Hamiltonian matrix: batch-based integration.
  Time summed over all CPUs for integration: real work        2.658 s, elapsed        2.697 s

  Updating Kohn-Sham eigenvalues, eigenvectors, occupation numbers, and Fermi level.
  Solving generalized eigenproblem
  Updating Kohn-Sham eigenvalues and eigenfunctions.
  Solving real generalised eigenvalue problem by standard LAPACK (fast)
  Determining occupation numbers for Kohn-Sham eigenstates.
  | Chemical potential (Fermi level) in eV                 : -.21990914E+01
  | Error in electron count due to remaining E_F inaccuracy: 0.00000000E+00
  | Maximum occupation number of highest empty state:  0.00E+00

  Highest occupied state (VBM) at     -2.19909140 eV
  | Occupation number:      1.00000000

  Lowest unoccupied state (CBM) at    -2.19909140 eV
  | Occupation number:      1.00000000

  Overall HOMO-LUMO gap:      0.00000000 eV.

  Total energy components:
  | Sum of eigenvalues            :        -126.75821490 Ha       -3449.26652415 eV
  | XC energy correction          :         -28.21139584 Ha        -767.67113957 eV
  | XC potential correction       :          36.05984402 Ha         981.23828068 eV
  | Free-atom electrostatic energy:        -107.06760985 Ha       -2913.45789899 eV
  | Hartree energy correction     :          -4.16755455 Ha        -113.40492924 eV
  | van der Waals energy corr.    :           0.00000000 Ha           0.00000000 eV
  | Entropy correction            :          -0.00010367 Ha          -0.00282095 eV
  | ---------------------------
  | Total energy                  :        -230.14493111 Ha       -6262.56221127 eV
  | Total energy, T -> 0          :        -230.14503478 Ha       -6262.56503221 eV  <-- do not rely on this value for anything but (periodic) metals
  | Electronic free energy        :        -230.14513845 Ha       -6262.56785316 eV

  Derived energy quantities:
  | Kinetic energy                :         229.65821265 Ha        6249.31792797 eV
  | Electrostatic energy          :        -431.59174792 Ha      -11744.20899967 eV
  | Energy correction for multipole
  | error in Hartree potential    :          -0.00123777 Ha          -0.03368134 eV
  | Sum of eigenvalues per atom                           :        -344.92665241 eV
  | Total energy (T->0) per atom                          :        -626.25650322 eV  <-- do not rely on this value for anything but (periodic) metals
  | Electronic free energy per atom                       :        -626.25678532 eV

  Self-consistency convergence accuracy:
  | Change of charge density      : 0.7685E-03
  | Change of sum of eigenvalues  : 0.6376E-01 eV
  | Change of total energy        : 0.5889E-05 eV

  End self-consistency iteration #     9       :  max(cpu_time)    wall_clock(cpu1)
  | Time for this iteration                    :        0.745 s           0.745 s
  | Charge density update                      :        0.229 s           0.230 s
  | Density mixing                             :        0.010 s           0.009 s
  | Hartree multipole update                   :        0.004 s           0.004 s
  | Hartree multipole summation                :        0.145 s           0.145 s
  | Integration                                :        0.338 s           0.338 s
  | Solution of K.-S. eqns.                    :        0.018 s           0.018 s
  | Total energy evaluation                    :        0.000 s           0.000 s
------------------------------------------------------------

------------------------------------------------------------
          Begin self-consistency iteration #   10

  Date     :  20150727, Time     :  125240.091
------------------------------------------------------------
  Evaluating new KS density.
  Integration grid: deviation in total charge (<rho> - N_e) =   3.552714E-15
  Pulay mixing of updated and previous charge densities.

  Evaluating partitioned Hartree potential by multipole expansion.
  | Analytical far-field extrapolation by fixed multipoles:
  | Hartree multipole sum: apparent total charge =  -0.183265E-05
  Summing up the Hartree potential.
  Time summed over all CPUs for potential: real work        1.144 s, elapsed        1.155 s
  | RMS charge density error from multipole expansion :   0.142558E-01

  Integrating Hamiltonian matrix: batch-based integration.
  Time summed over all CPUs for integration: real work        2.663 s, elapsed        2.696 s

  Updating Kohn-Sham eigenvalues, eigenvectors, occupation numbers, and Fermi level.
  Solving generalized eigenproblem
  Updating Kohn-Sham eigenvalues and eigenfunctions.
  Solving real generalised eigenvalue problem by standard LAPACK (fast)
  Determining occupation numbers for Kohn-Sham eigenstates.
  | Chemical potential (Fermi level) in eV                 : -.21999930E+01
  | Error in electron count due to remaining E_F inaccuracy: 0.00000000E+00
  | Maximum occupation number of highest empty state:  0.00E+00

  Highest occupied state (VBM) at     -2.19999303 eV
  | Occupation number:      1.00000000

  Lowest unoccupied state (CBM) at    -2.19999303 eV
  | Occupation number:      1.00000000

  Overall HOMO-LUMO gap:      0.00000000 eV.

  Total energy components:
  | Sum of eigenvalues            :        -126.75906931 Ha       -3449.28977395 eV
  | XC energy correction          :         -28.21147207 Ha        -767.67321375 eV
  | XC potential correction       :          36.05994004 Ha         981.24089348 eV
  | Free-atom electrostatic energy:        -107.06760985 Ha       -2913.45789899 eV
  | Hartree energy correction     :          -4.16672015 Ha        -113.38222422 eV
  | van der Waals energy corr.    :           0.00000000 Ha           0.00000000 eV
  | Entropy correction            :          -0.00010367 Ha          -0.00282095 eV
  | ---------------------------
  | Total energy                  :        -230.14493134 Ha       -6262.56221744 eV
  | Total energy, T -> 0          :        -230.14503501 Ha       -6262.56503839 eV  <-- do not rely on this value for anything but (periodic) metals
  | Electronic free energy        :        -230.14513868 Ha       -6262.56785934 eV

  Derived energy quantities:
  | Kinetic energy                :         229.65895935 Ha        6249.33824666 eV
[...]
  | Atom     7: H
  |   Hirshfeld charge        :      0.11132052
  |   Free atom volume        :     10.44207651
  |   Hirshfeld volume        :     11.50213970
  |   Hirshfeld dipole vector :     -0.02245754       0.00024312      -0.06822622
  |   Hirshfeld dipole moment :      0.07182769
  |   Hirshfeld second moments:      0.00400013       0.00397015       0.01994746
  |                                  0.00397015       0.03729374       0.00639121
  |                                  0.01994746       0.00639121       0.02883159
  ----------------------------------------------------------------------
  | Atom     8: O
  |   Hirshfeld charge        :     -0.31390515
  |   Free atom volume        :     23.95238533
  |   Hirshfeld volume        :     23.70143545
  |   Hirshfeld dipole vector :     -0.01278586       0.07206973       0.00030086
  |   Hirshfeld dipole moment :      0.07319573
  |   Hirshfeld second moments:     -0.03720789      -0.00655273      -0.06482437
  |                                 -0.00655273      -0.03538481       0.00394404
  |                                 -0.06482437       0.00394404       0.00900041
  ----------------------------------------------------------------------
  | Atom     9: H
  |   Hirshfeld charge        :      0.13012301
  |   Free atom volume        :     10.44207651
  |   Hirshfeld volume        :      7.44295369
  |   Hirshfeld dipole vector :     -0.06361797       0.08549987       0.06905866
  |   Hirshfeld dipole moment :      0.12699045
  |   Hirshfeld second moments:      0.08917447       0.00300556      -0.02086173
  |                                  0.00300556       0.08931715      -0.00633137
  |                                 -0.02086173      -0.00633137       0.10231285
  ----------------------------------------------------------------------
  | Atom    10: H
  |   Hirshfeld charge        :      0.09802710
  |   Free atom volume        :     10.44207651
  |   Hirshfeld volume        :     10.10086934
  |   Hirshfeld dipole vector :      0.02997661       0.05484325      -0.05589179
  |   Hirshfeld dipole moment :      0.08384671
  |   Hirshfeld second moments:      0.02428362       0.00088997      -0.00716889
  |                                  0.00088997       0.05089791       0.02133723
  |                                 -0.00716889       0.02133723       0.04323514
  ----------------------------------------------------------------------


  Total energy components:
  | Sum of eigenvalues            :        -126.75827625 Ha       -3449.26819359 eV
  | XC energy correction          :         -28.21153890 Ha        -767.67503233 eV
  | XC potential correction       :          36.06003275 Ha         981.24341611 eV
  | Free-atom electrostatic energy:        -107.06760985 Ha       -2913.45789899 eV
  | Hartree energy correction     :          -4.16753924 Ha        -113.40451274 eV
  | van der Waals energy corr.    :          -0.00086251 Ha          -0.02347002 eV
  | Entropy correction            :          -0.00010367 Ha          -0.00282095 eV
  | ---------------------------
  | Total energy                  :        -230.14579400 Ha       -6262.58569155 eV
  | Total energy, T -> 0          :        -230.14589767 Ha       -6262.58851250 eV  <-- do not rely on this value for anything but (periodic) metals
  | Electronic free energy        :        -230.14600133 Ha       -6262.59133345 eV

  Derived energy quantities:
  | Kinetic energy                :         229.65885461 Ha        6249.33539672 eV
  | Electrostatic energy          :        -431.59224721 Ha      -11744.22258593 eV
  | Energy correction for multipole
  | error in Hartree potential    :          -0.00125112 Ha          -0.03404470 eV
  | Sum of eigenvalues per atom                           :        -344.92681936 eV
  | Total energy (T->0) per atom                          :        -626.25885125 eV  <-- do not rely on this value for anything but (periodic) metals
  | Electronic free energy per atom                       :        -626.25913334 eV

  atomic forces [eV/Ang]:
  -----------------------
  atom #    1
   Hellmann-Feynman + Multipole  : -.190770E+01 -.816043E+01 -.723717E+01
   Pulay + GGA                   : 0.164070E+01 0.879711E+01 0.693741E+01
   Van der Waals               : 0.254092E-02 -.535080E-02 0.360910E-02
   ----------------------------------------------------------------
   Total forces(   1)            : -.264457E+00 0.631325E+00 -.296157E+00
  atom #    2
   Hellmann-Feynman + Multipole  : 0.545322E-01 -.342485E+00 0.967562E-01
   Pulay + GGA                   : -.263625E-01 0.574557E-01 -.322868E-01
   Van der Waals               : -.437949E-03 0.156361E-02 0.166372E-02
   ----------------------------------------------------------------
   Total forces(   2)            : 0.277317E-01 -.283465E+00 0.661331E-01
  atom #    3
   Hellmann-Feynman + Multipole  : -.117054E+00 -.138806E+00 0.643912E-01
   Pulay + GGA                   : 0.167307E+00 0.626250E-01 0.560566E-02
   Van der Waals               : 0.300693E-02 -.272014E-02 0.245948E-02
   ----------------------------------------------------------------
   Total forces(   3)            : 0.532600E-01 -.789015E-01 0.724563E-01
  atom #    4
   Hellmann-Feynman + Multipole  : 0.926348E-01 0.269690E-02 -.791174E-01
   Pulay + GGA                   : -.504139E-01 -.378679E-01 0.150916E+00
   Van der Waals               : 0.270486E-03 -.157405E-02 0.283750E-02
   ----------------------------------------------------------------
   Total forces(   4)            : 0.424914E-01 -.367450E-01 0.746362E-01
  atom #    5
   Hellmann-Feynman + Multipole  : -.647621E+01 -.692510E+01 0.918990E+01
   Pulay + GGA                   : 0.693873E+01 0.621486E+01 -.613145E+01
   Van der Waals               : -.260360E-02 0.572896E-02 0.225509E-02
   ----------------------------------------------------------------
   Total forces(   5)            : 0.459916E+00 -.704510E+00 0.306071E+01
  atom #    6
   Hellmann-Feynman + Multipole  : -.703545E-01 -.789820E-01 -.100970E+00
   Pulay + GGA                   : 0.848976E-01 0.122882E+00 0.455713E-01
   Van der Waals               : -.194678E-02 0.617094E-02 -.309542E-02
   ----------------------------------------------------------------
   Total forces(   6)            : 0.125964E-01 0.500708E-01 -.584941E-01
  atom #    7
   Hellmann-Feynman + Multipole  : -.311482E+00 0.418464E+00 -.278435E+01
   Pulay + GGA                   : -.283889E-01 0.214259E-01 -.136917E+00
   Van der Waals               : -.300357E-02 0.427262E-02 -.128643E-02
   ----------------------------------------------------------------
   Total forces(   7)            : -.342875E+00 0.444163E+00 -.292255E+01
  atom #    8
   Hellmann-Feynman + Multipole  : 0.136303E+01 -.161218E+02 0.200654E+01
   Pulay + GGA                   : -.109813E+00 0.161444E+02 -.373608E+01
   Van der Waals               : 0.130852E-02 -.391219E-02 -.476885E-02
   ----------------------------------------------------------------
   Total forces(   8)            : 0.125453E+01 0.186759E-01 -.173431E+01
  atom #    9
   Hellmann-Feynman + Multipole  : -.262236E+00 0.588403E+00 0.210899E+00
   Pulay + GGA                   : -.750989E-01 0.100262E+00 0.907451E-01
   Van der Waals               : 0.458565E-03 -.843282E-03 -.138059E-02
   ----------------------------------------------------------------
   Total forces(   9)            : -.336876E+00 0.687821E+00 0.300264E+00
  atom #   10
   Hellmann-Feynman + Multipole  : -.968170E+00 -.793919E+00 0.155931E+01
   Pulay + GGA                   : 0.689890E-01 0.739452E-01 -.124853E+00
   Van der Waals               : 0.406488E-03 -.333567E-02 -.229359E-02
   ----------------------------------------------------------------
   Total forces(  10)            : -.898774E+00 -.723310E+00 0.143216E+01
  Timings for vdw_correction_hirshfeld (Tkatchenko-Scheffler 2009):
  | CPU time:        1.936 s, Wall clock time:        1.935 s.
  Removing unitary transformations (pure translations, rotations) from forces on atoms.
  Atomic forces before filtering:
  | Net force on center of mass :  0.754227E-02 0.512465E-02 -.515283E-02 eV/A
  | Net torque on center of mass:  -.915151E-02 0.916650E-02 0.261937E-02 eV
  Atomic forces after filtering:
  | Net force on center of mass :  0.000000E+00 0.178406E-15 -.356812E-15 eV/A
  | Net torque on center of mass:  -.566451E-15 0.944085E-16 0.472042E-15 eV
 
  Energy and forces in a compact form:
  | Total energy uncorrected      :         -0.626258569155191E+04 eV
  | Total energy corrected        :         -0.626258851249982E+04 eV  <-- do not rely on this value for anything but (periodic) metals
  | Electronic free energy        :         -0.626259133344774E+04 eV
  Total atomic forces (unitary forces cleaned) [eV/Ang]:
  |   1         -0.265639465099420E+00          0.630717564512390E+00         -0.295880127855332E+00
  |   2          0.271082047833161E-01         -0.283750913330511E+00          0.664252880243952E-01
  |   3          0.521500637830044E-01         -0.798948459940999E-01          0.733751261916849E-01
  |   4          0.407308586813456E-01         -0.375517209793856E-01          0.746969203163428E-01
  |   5          0.459982689712966E+00         -0.704384476093733E+00          0.306100109493562E+01
  |   6          0.127626927307638E-01          0.499039455224482E-01         -0.576774469954834E-01
  |   7         -0.342247631141446E+00          0.444641691548184E+00         -0.292229455812807E+01
  |   8          0.125308734439709E+01          0.176877956772745E-01         -0.173369449945632E+01
  |   9         -0.338326992448284E+00          0.686848244190619E+00          0.300849036451716E+00
  |  10         -0.899607765399340E+00         -0.724217285053186E+00          0.143319916651544E+01
 
  ------------------------------------ 
  Start decomposition of the XC Energy 
  ------------------------------------ 
  Hartree-Fock part   :          0.000000000 Ha              0.000000000 eV
  ------------------------------------ 
  X Energy            :        -27.213733887 Ha           -740.523376478 eV
  C Energy GGA        :         -0.997805013 Ha            -27.151655852 eV
  Total XC Energy     :        -28.211538899 Ha           -767.675032329 eV
  LDA X and C from self-consistent density 
  X Energy LDA        :        -24.517817425 Ha           -667.163757062 eV
  C Energy LDA        :         -2.016092232 Ha            -54.860660926 eV
  ------------------------------------ 
  End decomposition of the XC Energy 
  ------------------------------------ 
  Performing Hirshfeld analysis of fragment charges and moments.
  ----------------------------------------------------------------------
  | Atom     1: O
  |   Hirshfeld charge        :     -0.13289088
  |   Free atom volume        :     23.95238533
  |   Hirshfeld volume        :     23.67803214
  |   Hirshfeld dipole vector :     -0.01289802       0.03116922       0.01582852
  |   Hirshfeld dipole moment :      0.03726152
  |   Hirshfeld second moments:      0.04672741      -0.00956563      -0.01071531
  |                                 -0.00956563       0.00001037      -0.03160241
  |                                 -0.01071531      -0.03160241       0.02744094
  ----------------------------------------------------------------------
  | Atom     2: H
  |   Hirshfeld charge        :      0.09639774
  |   Free atom volume        :     10.44207651
  |   Hirshfeld volume        :     11.32732878
  |   Hirshfeld dipole vector :     -0.01928763       0.00730038      -0.00199920
  |   Hirshfeld dipole moment :      0.02071967
  |   Hirshfeld second moments:      0.00764482       0.00232202       0.00046172
  |                                  0.00232202       0.00607476       0.00301332
  |                                  0.00046172       0.00301332       0.02748573
  ----------------------------------------------------------------------
  | Atom     3: H
  |   Hirshfeld charge        :      0.04237199
  |   Free atom volume        :     10.44207651
  |   Hirshfeld volume        :     17.32441135
  |   Hirshfeld dipole vector :     -0.03993040      -0.01038652      -0.01392385
  |   Hirshfeld dipole moment :      0.04354526
  |   Hirshfeld second moments:     -0.11011545      -0.02858241      -0.01609710
  |                                 -0.02858241      -0.08979168      -0.01512025
  |                                 -0.01609710      -0.01512025      -0.08790944
  ----------------------------------------------------------------------
  | Atom     4: H
  |   Hirshfeld charge        :      0.09188430
  |   Free atom volume        :     10.44207651
  |   Hirshfeld volume        :     13.97484202
  |   Hirshfeld dipole vector :     -0.03577677       0.00193178       0.00853871
  |   Hirshfeld dipole moment :      0.03683230
  |   Hirshfeld second moments:     -0.01812062      -0.00807974      -0.01525618
  |                                 -0.00807974      -0.01874090      -0.00958536
  |                                 -0.01525618      -0.00958536      -0.04809566
  ----------------------------------------------------------------------
  | Atom     5: O
  |   Hirshfeld charge        :     -0.21143224
  |   Free atom volume        :     23.95238533
  |   Hirshfeld volume        :     22.77392155
  |   Hirshfeld dipole vector :      0.02220430      -0.00133024      -0.01821534
  |   Hirshfeld dipole moment :      0.02875064
  |   Hirshfeld second moments:     -0.02028650       0.00155538       0.03600475
  |                                  0.00155538       0.04958419       0.00733328
  |                                  0.03600475       0.00733328       0.05533321
  ----------------------------------------------------------------------
  | Atom     6: H
  |   Hirshfeld charge        :      0.08807984
  |   Free atom volume        :     10.44207651
  |   Hirshfeld volume        :     12.32943524
  |   Hirshfeld dipole vector :     -0.00430539       0.03333157       0.02980131
  |   Hirshfeld dipole moment :      0.04491824
  |   Hirshfeld second moments:     -0.04936183      -0.01380365       0.00326165
  |                                 -0.01380365       0.00816497       0.00947769
  |                                  0.00326165       0.00947769       0.03809574
  ----------------------------------------------------------------------
  | Atom     7: H
  |   Hirshfeld charge        :      0.11132052
  |   Free atom volume        :     10.44207651
  |   Hirshfeld volume        :     11.50213970
  |   Hirshfeld dipole vector :     -0.02245754       0.00024312      -0.06822622
  |   Hirshfeld dipole moment :      0.07182769
  |   Hirshfeld second moments:      0.00400013       0.00397015       0.01994746
  |                                  0.00397015       0.03729374       0.00639121
  |                                  0.01994746       0.00639121       0.02883159
  ----------------------------------------------------------------------
  | Atom     8: O
  |   Hirshfeld charge        :     -0.31390515
  |   Free atom volume        :     23.95238533
  |   Hirshfeld volume        :     23.70143545
  |   Hirshfeld dipole vector :     -0.01278586       0.07206973       0.00030086
  |   Hirshfeld dipole moment :      0.07319573
  |   Hirshfeld second moments:     -0.03720789      -0.00655273      -0.06482437
  |                                 -0.00655273      -0.03538481       0.00394404
  |                                 -0.06482437       0.00394404       0.00900041
  ----------------------------------------------------------------------
  | Atom     9: H
  |   Hirshfeld charge        :      0.13012301
  |   Free atom volume        :     10.44207651
  |   Hirshfeld volume        :      7.44295369
  |   Hirshfeld dipole vector :     -0.06361797       0.08549987       0.06905866
  |   Hirshfeld dipole moment :      0.12699045
  |   Hirshfeld second moments:      0.08917447       0.00300556      -0.02086173
  |                                  0.00300556       0.08931715      -0.00633137
  |                                 -0.02086173      -0.00633137       0.10231285
  ----------------------------------------------------------------------
  | Atom    10: H
  |   Hirshfeld charge        :      0.09802710
  |   Free atom volume        :     10.44207651
  |   Hirshfeld volume        :     10.10086934
  |   Hirshfeld dipole vector :      0.02997661       0.05484325      -0.05589179
  |   Hirshfeld dipole moment :      0.08384671
  |   Hirshfeld second moments:      0.02428362       0.00088997      -0.00716889
  |                                  0.00088997       0.05089791       0.02133723
  |                                 -0.00716889       0.02133723       0.04323514
  ----------------------------------------------------------------------


------------------------------------------------------------------------------
  Final output of selected total energy values:

  The following output summarizes some interesting total energy values
  at the end of a run (AFTER all relaxation, molecular dynamics, etc.).

  | Total energy of the DFT / Hartree-Fock s.c.f. calculation      :          -6262.585691552 eV
  | Final zero-broadening corrected energy (caution - metals only) :          -6262.588512500 eV
  | For reference only, the value of 1 Hartree used in FHI-aims is :             27.211384500 eV

  Before relying on these values, please be sure to understand exactly which
  total energy value is referred to by a given number. Different objects may
  all carry the same name 'total energy'. Definitions:

  Total energy of the DFT / Hartree-Fock s.c.f. calculation:
  | Note that this energy does not include ANY quantities calculated after the
  | s.c.f. cycle, in particular not ANY RPA, MP2, etc. many-body perturbation terms.

  Final zero-broadening corrected energy:
  | For metallic systems only, a broadening of the occupation numbers at the Fermi
  | level can be extrapolated back to zero broadening by an electron-gas inspired
  | formula. For all systems that are not real metals, this value can be
  | meaningless and should be avoided.

------------------------------------------------------------------------------

------------------------------------------------------------
          Leaving FHI-aims.
          Date     :  20150727, Time     :  125246.073

          Computational steps:
          | Number of self-consistency cycles          :           15

          Detailed time accounting                     :  max(cpu_time)    wall_clock(cpu1)
          | Total time                                 :       14.051 s          14.089 s
          | Preparation time                           :        0.173 s           0.563 s
          | Grid partitioning                          :        0.097 s           0.096 s
          | Preloading free-atom quantities on grid    :        0.014 s           0.013 s
          | Free-atom superposition energy             :        0.034 s           0.034 s
          | Total time for integrations                :        5.591 s           5.592 s
          | Total time for solution of K.-S. equations :        0.347 s           0.346 s
          | Total time for density & force components  :        4.397 s           4.397 s
          | Total time for mixing                      :        0.123 s           0.120 s
          | Total time for Hartree multipole update    :        0.055 s           0.057 s
          | Total time for Hartree multipole sum       :        2.656 s           2.654 s
          | Total time for total energy evaluation     :        0.001 s           0.002 s
          | Total time for scaled ZORA corrections     :        0.000 s           0.000 s
          | Total time for TS (2009) vdW correction    :        0.028 s           0.031 s

          Have a nice day.
------------------------------------------------------------
