  MPI-parallelism will be employed.
------------------------------------------------------------
          Invoking FHI-aims ...
          Version 081213
          Compiled on 2013/08/29 at 17:41:06 on host generoso.

          When using FHI-aims, please cite the following reference:

          Volker Blum, Ralf Gehrke, Felix Hanke, Paula Havu,
          Ville Havu, Xinguo Ren, Karsten Reuter, and Matthias Scheffler,
          'Ab Initio Molecular Simulations with Numeric Atom-Centered Orbitals: FHI-aims',
          Computer Physics Communications 180, 2175-2196 (2009)

          For any questions about FHI-aims, please visit the aimsclub website
          with its forums and wiki. Contributions to both the forums and the
          wiki are warmly encouraged - they are for you, and everyone is welcome there.

------------------------------------------------------------

  Date     :  20150727, Time     :  123207.804
  Time zero on CPU 1             :   0.409920000000000E-01  s.
  Internal wall clock time zero  :           207232327.804  s.

  Using        8 parallel tasks.
  Task        0 on host gen59 reporting.
  Task        1 on host gen59 reporting.
  Task        2 on host gen59 reporting.
  Task        3 on host gen59 reporting.
  Task        4 on host gen59 reporting.
  Task        5 on host gen59 reporting.
  Task        6 on host gen59 reporting.
  Task        7 on host gen59 reporting.

  Performing system and environment tests:
  | Environment variable OMP_NUM_THREADS correctly set to 1.
  | Checking for scalapack...
  | No scalapack compiled in.

  Obtaining array dimensions for all initial allocations:
  
  -----------------------------------------------------------------------
  Parsing control.in (first pass over file, find array dimensions only).
  The contents of control.in will be repeated verbatim below
  unless switched off by setting 'verbatim_writeout .false.' .
  in the first line of control.in .
  -----------------------------------------------------------------------
  
  #########################################################################################
  #
  #  Volker Blum, FHI 2008 : Test run input file control.in
  #
  #########################################################################################
  #
  #  Physical model
  #
    xc                 rpbe
    spin               none
    relativistic       atomic_zora scalar
    charge             0.
   vdw_correction_hirshfeld
  #
  #  SCF convergence
  #
    occupation_type    gaussian 0.01
    mixer              pulay
      n_max_pulay        10
      charge_mix_param   0.1
    sc_accuracy_rho    5E-5
    sc_accuracy_eev    5E-3
    sc_accuracy_etot   5E-6
    sc_iter_limit      3000
  #
  #  Eigenvalue solver
  #
    KS_method          lapack
      empty_states       8
      basis_threshold    0.e-5
  #
  #  Efficiency
  #
  #   all previous settings are now default, except stratmann still
  #   undecided. Continue to handle stratmann with care, if at all.
  #
  #  partition_type stratmann
    partition_type rho_r2
  #  hartree_partition_type stratmann
  #
  #  Oprions for large clusters (100's of atoms: memory saving / better scaling)
  #
  # for periodic systems:
  #
    density_update_method orbital
    packed_matrix_format none
  #  k_grid 6 6 6
  #  output k_eigenvalue 1
  #  distributed_spline_storage .true.
  #
  #  Relaxation
  #
  #  relax_geometry   bfgs 5.e-3
    sc_accuracy_forces 5.E-4
    final_forces_cleaned .true.
  #
  #  Output options
  #
  #  output mulliken
    output Hirshfeld
  #  output dipole
  
  #harmonic_length_scale 0.001
  
  ################################################################################
  #
  #  FHI-aims code project
  #  VB, Fritz-Haber Institut, 2007
  #
  #  Suggested "safe" defaults for H atom (to be pasted into control.in file)
  #  Basis constructed for a non-relativistic H2 molecule using the
  #  PW-LDA functional.
  #
  ################################################################################
    species        H
  #     global species definitions
      nucleus             1
      cut_pot             4.0  2.0  1.0
      cut_free_atom       finite 8.0
      logarithmic         0.00010000 100.00  1.0123
      basis_dep_cutoff    1d-4  # 1d-4 is safe default - please check 5d-4 if you wish!
      radial_base         24 7.0
      radial_multiplier   2
      angular_grids       specified
        division   0.2783  110
        division   0.3822  194
        division   0.5626  302
  #      division   0.5922  434
  #      division   0.6227  590
  #      division   0.7206  770
        outer_grid  302
      l_hartree           4
  ################################################################################
  #
  #  Definition of "minimal" basis
  #
  ################################################################################
  #     valence basis states
      valence      1  s   1.
  #     ion occupancy
      ion_occ      1  s   0.5
  ################################################################################
  #
  #  Suggested additional basis functions. For production calculations,
  #  uncomment them one after another (the most important basis functions are
  #  listed first).
  #
  ################################################################################
  #  "First tier" - improvements: -1014.90 meV to -62.69 meV
       hydro 2 s 2.1
       hydro 2 p 3.5
  #  "Second tier" - improvements: -12.89 meV to -1.83 meV
       hydro 1 s 0.85
       hydro 2 p 3.7
       hydro 2 s 1.2
       hydro 3 d 7
  #  "Third tier" - improvements: -0.25 meV to -0.12 meV
  #     hydro 4 f 11.2
  #     hydro 3 p 4.8
  #     hydro 4 d 9
  #     hydro 3 s 3.2
  
  ################################################################################
  #
  #  FHI-aims code project
  #  VB, Fritz-Haber Institut, 2007
  #
  #  Suggested "safe" defaults for O atom (to be pasted into control.in file)
  #  All values have been tested for a non-relativistic, non-spinpolarized O2
  #  molecule using the PW-LDA functional. Validity for PBE is expected.
  #
  #  Constructed for dimers: 1.0 A, 1.208 A, 1.5 A, 2.0 A, 3.0 A
  #
  ################################################################################
    species        O
  #     global species definitions
      nucleus             8
      mass                15.9994
      l_hartree           4
      cut_pot             4.0  2.0  1.0
      cut_free_atom       finite 8.0
      basis_dep_cutoff    1d-4  # 1d-4 is safe default - please check 5d-4 if you wish!
      logarithmic         0.00010000 100.00  1.0123
      radial_base         36 7.0
      radial_multiplier   2
       angular_grids specified
        division   0.4087  110
        division   0.5181  194
        division   0.6184  302
  #      division   0.7315  434
  #      division   0.7934  590
  #      division   0.9656  770
  #      division   1.4041  974
  #      outer_grid 974
        outer_grid 302
  ################################################################################
  #
  #  Definition of "minimal" basis
  #
  ################################################################################
  #     valence basis states
      valence      2  s   2.
      valence      2  p   4.
  #     ion occupancy
      ion_occ      2  s   1.
      ion_occ      2  p   3.
  ################################################################################
  #
  #  Suggested additional basis functions. For production calculations,
  #  uncomment them one after another (the most important basis functions are
  #  listed first).
  #
  ################################################################################
  #  "First tier" - improvements: -699.05 meV to -159.38 meV
       hydro 2 p 1.8
       hydro 3 d 7.6
       hydro 3 s 6.4
  #  "Second tier" - improvements: -49.91 meV to -5.39 meV
       hydro 4 f 11.6
       hydro 3 p 6.2
       hydro 3 d 5.6
       hydro 5 g 17.6
       hydro 1 s 0.75
  #  "Third tier" - improvements: -2.83 meV to -0.50 meV
  #     ionic 2 p auto
  #     hydro 4 f 10.8
  #     hydro 4 d 4.7
  #     hydro 2 s 6.8
  #  "Fourth tier" - improvements: -0.40 meV to -0.12 meV
  #     hydro 3 p 5
  #     hydro 3 s 3.3
  #     hydro 5 g 15.6
  #     hydro 4 f 17.6
  #     hydro 4 d 14
  # Further basis functions - -0.08 meV and below
  #     hydro 3 s 2.1
  #     hydro 4 d 11.6
  #     hydro 3 p 16
  #     hydro 2 s 17.2
  
  
  -----------------------------------------------------------------------
  Completed first pass over input file control.in .
  -----------------------------------------------------------------------
  
  
  -----------------------------------------------------------------------
  Parsing geometry.in (first pass over file, find array dimensions only).
  The contents of geometry.in will be repeated verbatim below
  unless switched off by setting 'verbatim_writeout .false.' .
  in the first line of geometry.in .
  -----------------------------------------------------------------------
  
  atom      -4.053030000      0.065001000     -1.525160000  O
  atom      -4.566710000      0.974813000     -1.912820000  H
  atom      -3.067820000      0.330172000     -1.477310000  H
  atom      -4.370360000     -0.049164000     -0.572274000  H
  atom      -4.581760000     -0.256435000      0.939478000  O
  atom      -4.349860000      0.471090000      1.504340000  H
  atom      -5.393870000     -0.726611000      1.228070000  H
  atom      -5.628340000      3.730740000      1.385610000  O
  atom      -6.090650000      4.418470000      1.860350000  H
  atom      -5.158540000      4.200260000      0.615875000  H
  
  -----------------------------------------------------------------------
  Completed first pass over input file geometry.in .
  -----------------------------------------------------------------------
  
 
  Basic array size parameters: 
  | Number of species                 :        2
  | Number of atoms                   :       10
  | Max. basis fn. angular momentum   :        4
  | Max. atomic/ionic basis occupied n:        2
  | Max. number of basis fn. types    :        2
  | Max. radial fns per species/type  :        8
  | Max. logarithmic grid size        :     1301
  | Max. radial integration grid size :       73
  | Max. angular integration grid size:      302
  | Max. angular grid division number :        8
  | Radial grid for Hartree potential :     1301
  | Number of spin channels           :        1

------------------------------------------------------------
          Reading file control.in.
------------------------------------------------------------
  XC: Using RPBE gradient-corrected functionals.
  Spin treatment: No spin polarisation.
  Scalar relativistic treatment of kinetic energy: on-site free-atom approximation to ZORA.
  Charge =   0.000000E+00: Neutral system requested explicitly.
  Using non-empirical van der Waals correction (Hirshfeld partitioning):
  Occupation type: Gaussian broadening, width =   0.100000E-01 eV.
  Using pulay charge density mixing.
  Pulay mixing - number of memorized iterations:   10
  Charge density mixing - mixing parameter:     0.1000
  Convergence accuracy of self-consistent charge density: 0.5000E-04
  Convergence accuracy of sum of eigenvalues: 0.5000E-02
  Convergence accuracy of total energy: 0.5000E-05
  Maximum number of s.-c. iterations  :  3000
  Kohn-Sham eigenvalues and eigenfunctions calculated by lapack diagonalisation (D&C).
  Number of empty states per atom:        8
  Threshold for basis singularities: 0.0000E+00
  Partition function in integrals calculations: rho / r^2
 Using packed matrix format           0
  Convergence accuracy of forces: 0.5000E-03
  Cleaning forces before final output.
  Hirshfeld charge analysis will be performed.
 
  Reading configuration options for species H                   .
  | Found nuclear charge :   1.0000
  | Found cutoff potl. onset [A], width [A], scale factor :    4.00000    2.00000    1.00000
  | Found cutoff specification for free atom: Cutoff potential begins at    8.00000 A.
  | Found logarithmic grid data [bohr] : 0.1000E-03 0.1000E+03 0.1012E+01
  | Threshold for basis-dependent cutoff potential is   0.100000E-03
  | Found data for basic radial integration grid :    24 points, outermost radius =    7.000 A
  | Found multiplier for basic radial grid :   2
  | Found angular grid specification: user-specified.
  | Specified grid contains     4 separate shells.
  | Check grid settings after all constraints further below.
  | Found l_max for Hartree potential  :   4
  | Found free-atom valence shell :  1 s   1.000
  | No ionic wave fns used. Skipping ion_occ.
  | Found hydrogenic basis function :  2 s   2.100
  | Found hydrogenic basis function :  2 p   3.500
  | Found hydrogenic basis function :  1 s   0.850
  | Found hydrogenic basis function :  2 p   3.700
  | Found hydrogenic basis function :  2 s   1.200
  | Found hydrogenic basis function :  3 d   7.000
  Species H                   : Missing cutoff potential type.
  Defaulting to exp(1/x)/(1-x)^2 type cutoff potential.
  Species H : On-site basis accuracy parameter (for Gram-Schmidt orthonormalisation) not specified.
  Using default value basis_acc =  0.1000000E-03.
  Species H                   : Using default innermost maximum threshold i_radial=  2 for radial functions.
  Species H                   : Basic radial grid will be enhanced according to radial_multiplier =   2, to contain    49 grid points.
 
  Reading configuration options for species O                   .
  | Found nuclear charge :   8.0000
  | Found atomic mass :    15.9994000000000      amu
  | Found l_max for Hartree potential  :   4
  | Found cutoff potl. onset [A], width [A], scale factor :    4.00000    2.00000    1.00000
  | Found cutoff specification for free atom: Cutoff potential begins at    8.00000 A.
  | Threshold for basis-dependent cutoff potential is   0.100000E-03
  | Found logarithmic grid data [bohr] : 0.1000E-03 0.1000E+03 0.1012E+01
  | Found data for basic radial integration grid :    36 points, outermost radius =    7.000 A
  | Found multiplier for basic radial grid :   2
  | Found angular grid specification: user-specified.
  | Specified grid contains     4 separate shells.
  | Check grid settings after all constraints further below.
  | Found free-atom valence shell :  2 s   2.000
  | Found free-atom valence shell :  2 p   4.000
  | No ionic wave fns used. Skipping ion_occ.
  | No ionic wave fns used. Skipping ion_occ.
  | Found hydrogenic basis function :  2 p   1.800
  | Found hydrogenic basis function :  3 d   7.600
  | Found hydrogenic basis function :  3 s   6.400
  | Found hydrogenic basis function :  4 f  11.600
  | Found hydrogenic basis function :  3 p   6.200
  | Found hydrogenic basis function :  3 d   5.600
  | Found hydrogenic basis function :  5 g  17.600
  | Found hydrogenic basis function :  1 s   0.750
  Species O                   : Missing cutoff potential type.
  Defaulting to exp(1/x)/(1-x)^2 type cutoff potential.
  Species O : On-site basis accuracy parameter (for Gram-Schmidt orthonormalisation) not specified.
  Using default value basis_acc =  0.1000000E-03.
  Species O                   : Using default innermost maximum threshold i_radial=  2 for radial functions.
  Species O                   : Basic radial grid will be enhanced according to radial_multiplier =   2, to contain    73 grid points.
 
  Finished reading input file 'control.in'. Consistency checks are next.
 
  Target number of points in a grid batch is not set. Defaulting to  100
  Method for grid partitioning is not set. Defaulting to parallel hash+maxmin partitioning.
  Batch size limit is not set. Defaulting to    200
  By default, will store active basis functions for each batch.
  If in need of memory, prune_basis_once .false. can be used to disable this option.
  communication_type for Hartree potential was not specified.
  Defaulting to calc_hartree .
  Pulay mixer: Number of initial linear mixing iterations not set.
  Defaulting to    0 iterations.
  Work space size for distributed Hartree potential not set.
  Defaulting to   0.200000E+03 MB.
  Algorithm-dependent basis array size parameters:
  | n_max_pulay                         :       10
  Geometry relaxation not requested: no relaxation will be performed.
  Handling of forces: Unphysical translation and rotation will be removed from forces.
  No accuracy limit for integral partition fn. given. Defaulting to 0.1000E-14.
  No threshold value for u(r) in integrations given. Defaulting to 0.1000E-05.
  No accuracy for occupation numbers given. Defaulting to 0.1000E-07.
  No threshold value for occupation numbers given. Defaulting to 0.0000E+00.
  No accuracy for fermi level given. Defaulting to 0.1000E-19.
  Maximum # of iterations to find E_F not set. Defaulting to  200.
  Will not use alltoall communication since running on < 1024 CPUs.
  Partitioning for Hartree potential was not defined. Using partition_type for integrals.
  | Reporting present value of keyword multip_moments_threshold  :       0.10000000E-09
  | This value may affect high angular momentum components of the Hartree potential in periodic systems.
  No q(lm)/r^(l+1) cutoff set for long-range Hartree potential.
  | Using default value of  0.100000E-09 .
  | Verify using the multipole_threshold keyword.
  Defaulting to new monopole extrapolation.
  Density update method: Loop over occupied states selected for charge density update.
------------------------------------------------------------


------------------------------------------------------------
          Reading geometry description geometry.in.
------------------------------------------------------------
  Input structure read successfully.
  The structure contains       10 atoms,  and a total of         31.000 electrons.

  Input geometry:
  | No unit cell requested.
  | Atomic structure:
  |       Atom                x [A]            y [A]            z [A]
  |    1: Species O             -4.053030         0.065001        -1.525160
  |    2: Species H             -4.566710         0.974813        -1.912820
  |    3: Species H             -3.067820         0.330172        -1.477310
  |    4: Species H             -4.370360        -0.049164        -0.572274
  |    5: Species O             -4.581760        -0.256435         0.939478
  |    6: Species H             -4.349860         0.471090         1.504340
  |    7: Species H             -5.393870        -0.726611         1.228070
  |    8: Species O             -5.628340         3.730740         1.385610
  |    9: Species H             -6.090650         4.418470         1.860350
  |   10: Species H             -5.158540         4.200260         0.615875
  |

  | The smallest distance between any two atoms is         0.94981015 AA.
  |
  | The first atom of this pair is atom number                      5 .
  | The second atom of this pair is atom number                     6 .

  Structure-dependent array size parameters: 
  | Maximum number of distinct radial functions  :       18
  | Maximum number of basis functions            :      222
  | Number of Kohn-Sham states (occupied + empty):       56
------------------------------------------------------------

------------------------------------------------------------
          Preparing all fixed parts of the calculation.
------------------------------------------------------------
  Determining machine precision:
    2.225073858507201E-308
  Setting up grids for atomic and cluster calculations.

  Creating wave function, potential, and density for free atoms.

  Species: H

  List of occupied orbitals and eigenvalues:
    n    l              occ      energy [Ha]    energy [eV]
    1    0           1.0000        -0.241408        -6.5691


  Species: O

  List of occupied orbitals and eigenvalues:
    n    l              occ      energy [Ha]    energy [eV]
    1    0           2.0000       -18.944147      -515.4965
    2    0           2.0000        -0.883529       -24.0421
    2    1           4.0000        -0.330176        -8.9845

  Creating fixed part of basis set: Ionic, confined, hydrogenic.
 
  H                    hydrogenic:
 
  List of hydrogenic basis orbitals: 
    n    l      effective z      eigenvalue [eV]  inner max. [A]     outer max. [A]     outer radius [A]   
    2    0         2.100000       -14.9965           0.193241           1.317192           5.372934
    2    1         3.500000       -41.6672           0.602363           0.602363           4.056010
    1    0         0.850000        -9.8292           0.624864           0.624864           5.372934
    2    1         3.700000       -46.5653           0.573616           0.573616           3.909951
    2    0         1.200000        -4.5995           0.334977           2.228160           5.505921
    3    2         7.000000       -74.0753           0.680692           0.680692           3.769152
 
 
  O                    hydrogenic:
 
  List of hydrogenic basis orbitals: 
    n    l      effective z      eigenvalue [eV]  inner max. [A]     outer max. [A]     outer radius [A]   
    2    1         1.800000       -11.0118           1.178546           1.178546           5.432516
    3    2         7.600000       -87.3182           0.624117           0.624117           3.541422
    3    0         6.400000       -61.9209           0.061166           1.081887           4.306510
    4    3        11.600000      -114.4238           0.731621           0.731621           3.584982
    3    1         6.200000       -58.1113           0.255677           1.030255           4.306510
    3    2         5.600000       -47.4081           0.847222           0.847222           4.413102
    5    4        17.600000      -168.5799           0.749730           0.749730           3.372413
    1    0         0.750000        -7.6499           0.705275           0.705275           5.366508
 

  Adding cutoff potential to free-atom effective potential.
  Creating atomic-like basis functions for current effective potential.

  Species H                   :

  List of atomic basis orbitals and eigenvalues:
    n    l      energy [Ha]    energy [eV]    outer radius [A]
    1    0        -0.241374        -6.5681       5.372934


  Species O                   :

  List of atomic basis orbitals and eigenvalues:
    n    l      energy [Ha]    energy [eV]    outer radius [A]
    1    0       -18.944147      -515.4965       1.415745
    2    0        -0.883529       -24.0421       5.048305
    2    1        -0.330173        -8.9845       5.301302

  Assembling full basis from fixed parts.
  | Species H :   atomic orbital   1 s accepted.
  | Species H :    hydro orbital   2 s accepted.
  | Species H :    hydro orbital   1 s accepted.
  | Species H :    hydro orbital   2 s accepted.
  | Species H :    hydro orbital   2 p accepted.
  | Species H :    hydro orbital   2 p accepted.
  | Species H :    hydro orbital   3 d accepted.
  | Species O :   atomic orbital   1 s accepted.
  | Species O :    hydro orbital   3 s accepted.
  | Species O :   atomic orbital   2 s accepted.
  | Species O :    hydro orbital   1 s accepted.
  | Species O :    hydro orbital   3 p accepted.
  | Species O :   atomic orbital   2 p accepted.
  | Species O :    hydro orbital   2 p accepted.
  | Species O :    hydro orbital   3 d accepted.
  | Species O :    hydro orbital   3 d accepted.
  | Species O :    hydro orbital   4 f accepted.
  | Species O :    hydro orbital   5 g accepted.
 
  Basis size parameters after reduction:
  | Total number of radial functions:       18
  | Total number of basis functions :      222
 
  Testing on-site integration grid accuracy.
  |  Species  Function  <phi|h_atom|phi> (log., in eV)  <phi|h_atom|phi> (rad., in eV)
           1        1                 -6.5683835025                 -6.5684759159
           1        2                 13.3711789951                 13.3708738703
           1        3                 23.6590910787                 23.6532055418
           1        4                 16.2963827186                 16.1870710655 ***
           1        5                 28.7627214838                 28.7627215090
           1        6                 59.5965249172                 59.5965950857
           1        7                 60.2220506392                 60.2220503827
           2        8               -515.4964576505               -515.4964530710
           2        9                 15.3030791347                 15.3030722972
           2       10                -21.7296094581                -21.7296135470
           2       11                 14.2969371730                 14.2969701621
           2       12                 21.0679693190                 21.0679697493
           2       13                 -2.3833606469                 -2.3833613176
           2       14                 13.7067136422                 13.7066766629
           2       15                 45.8013116808                 45.8013116965
           2       16                 52.2309815402                 52.2309831494
           2       17                 85.4120732416                 85.4120732763
           2       18                142.1019167745                142.1019167817
 * Note: Onsite integrals marked "***" above are less accurate than
 * onsite_accuracy_threshold =    0.03000 eV. Usually, this is harmless.
 * When in doubt, tighten the "radial" and/or "radial_multiplier" flags to check.

  Preparing densities etc. for the partition functions (integrals / Hartree potential).

  Preparations completed.
  max(cpu_time)          :      0.174 s.
  Wall clock time (cpu1) :      0.605 s.
------------------------------------------------------------

------------------------------------------------------------
          Begin self-consistency loop: Initialization.

          Date     :  20150727, Time     :  123208.430
------------------------------------------------------------

  Initializing index lists of integration centers etc. from given atomic structure:
  | Number of centers in hartree potential         :        10
  | Number of centers in hartree multipole         :        10
  | Number of centers in electron density summation:        10
  | Number of centers in basis integrals           :        10
  | Number of centers in integrals                 :        10
  Partitioning the integration grid into batches with parallel hashing+maxmin method.
  | Number of batches:     1363
  | Maximal batch size:     200
  | Minimal batch size:      49
  | Average batch size:      95.099
  | Standard deviation of batch sizes:      28.518

  Integration load balanced across     8 MPI tasks.
  Work distribution over tasks is as follows:
  Task     0 has      16189 integration points.
  Task     1 has      16179 integration points.
  Task     2 has      16143 integration points.
  Task     3 has      16150 integration points.
  Task     4 has      16180 integration points.
  Task     5 has      16283 integration points.
  Task     6 has      16170 integration points.
  Task     7 has      16326 integration points.
  Initializing partition tables, free-atom densities, potentials, etc. across the integration grid (initialize_grid_storage).
  | Net number of integration points:   129620
  | of which are non-zero points    :   129112
  Obtaining max. number of non-zero basis functions in each batch (get_n_compute_maxes).
  | Maximal number of non-zero basis functions:      220 in task     0
  | Maximal number of non-zero basis functions:      221 in task     1
  | Maximal number of non-zero basis functions:      221 in task     2
  | Maximal number of non-zero basis functions:      220 in task     3
  | Maximal number of non-zero basis functions:      220 in task     4
  | Maximal number of non-zero basis functions:      220 in task     5
  | Maximal number of non-zero basis functions:      221 in task     6
  | Maximal number of non-zero basis functions:      220 in task     7
  Integrating Hamiltonian matrix: batch-based integration.
  Time summed over all CPUs for integration: real work        2.650 s, elapsed        2.678 s
  Integrating overlap matrix.
  Time summed over all CPUs for integration: real work        1.383 s, elapsed        1.402 s

  Updating Kohn-Sham eigenvalues, eigenvectors, occupation numbers, and Fermi level.
  Solving generalized eigenproblem
  Updating Kohn-Sham eigenvalues and eigenfunctions.
  Transforming overlap matrix and checking for singularities.
  Overlap matrix is nonsingular:
  | Lowest eigenvalue:  0.297259E-03
  Solving real generalised eigenvalue problem by standard LAPACK (fast)
  Determining occupation numbers for Kohn-Sham eigenstates.
  | Chemical potential (Fermi level) in eV                 : -.28218185E+01
  | Error in electron count due to remaining E_F inaccuracy: -.59515415E-09
  | Maximum occupation number of highest empty state:  0.00E+00

  Writing Kohn-Sham eigenvalues.

  State    Occupation    Eigenvalue [Ha]    Eigenvalue [eV]
      1       2.00000         -19.064904         -518.78245
      2       2.00000         -19.059127         -518.62523
      3       2.00000         -19.044496         -518.22709
      4       2.00000          -1.124548          -30.60050
      5       2.00000          -1.103380          -30.02450
      6       2.00000          -1.089064          -29.63494
      7       2.00000          -0.651140          -17.71842
      8       2.00000          -0.639662          -17.40609
      9       2.00000          -0.618201          -16.82211
     10       2.00000          -0.602211          -16.38700
     11       2.00000          -0.515217          -14.01978
     12       2.00000          -0.501565          -13.64829
     13       2.00000          -0.484590          -13.18636
     14       2.00000          -0.446109          -12.13923
     15       2.00000          -0.430133          -11.70450
     16       1.00000          -0.103700           -2.82182
     17       0.00000          -0.069090           -1.88002
     18       0.00000          -0.059919           -1.63049
     19       0.00000          -0.031205           -0.84913
     20       0.00000          -0.006207           -0.16889
     21       0.00000          -0.001762           -0.04794
     22       0.00000           0.049088            1.33576
     23       0.00000           0.065437            1.78064
     24       0.00000           0.074254            2.02056
     25       0.00000           0.090907            2.47371
     26       0.00000           0.103567            2.81821
     27       0.00000           0.111555            3.03557
     28       0.00000           0.117676            3.20213
     29       0.00000           0.124673            3.39251
     30       0.00000           0.127282            3.46352
     31       0.00000           0.133653            3.63688
     32       0.00000           0.167372            4.55442
     33       0.00000           0.183584            4.99558
     34       0.00000           0.205187            5.58341
     35       0.00000           0.229772            6.25242
     36       0.00000           0.240274            6.53818
     37       0.00000           0.265370            7.22108
     38       0.00000           0.287213            7.81546
     39       0.00000           0.324586            8.83244
     40       0.00000           0.332451            9.04645
     41       0.00000           0.355987            9.68690
     42       0.00000           0.362157            9.85478
     43       0.00000           0.388109           10.56098
     44       0.00000           0.402030           10.93980
     45       0.00000           0.403931           10.99152
     46       0.00000           0.418476           11.38731
     47       0.00000           0.440611           11.98963
     48       0.00000           0.465544           12.66809
     49       0.00000           0.489501           13.32001
     50       0.00000           0.503918           13.71232
     51       0.00000           0.529132           14.39840
     52       0.00000           0.549748           14.95940
     53       0.00000           0.621770           16.91921
     54       0.00000           0.662740           18.03407
     55       0.00000           0.696905           18.96374
     56       0.00000           0.738488           20.09529

  Highest occupied state (VBM) at    -11.70450205 eV
  | Occupation number:      2.00000000

  Lowest unoccupied state (CBM) at    -2.82181846 eV
  | Occupation number:      1.00000000

  Overall HOMO-LUMO gap:      8.88268358 eV.
  Calculating total energy contributions from superposition of free atom densities.

  Total energy components:
  | Sum of eigenvalues            :        -130.85239349 Ha       -3560.67479191 eV
  | XC energy correction          :         -27.68175925 Ha        -753.25899452 eV
  | XC potential correction       :          35.37605217 Ha         962.63135757 eV
  | Free-atom electrostatic energy:        -107.14033493 Ha       -2915.43684925 eV
  | Hartree energy correction     :           0.00000000 Ha           0.00000000 eV
  | van der Waals energy corr.    :           0.00000000 Ha           0.00000000 eV
  | Entropy correction            :          -0.00010367 Ha          -0.00282095 eV
  | ---------------------------
  | Total energy                  :        -230.29843550 Ha       -6266.73927811 eV
  | Total energy, T -> 0          :        -230.29853917 Ha       -6266.74209906 eV  <-- do not rely on this value for anything but (periodic) metals
  | Electronic free energy        :        -230.29864283 Ha       -6266.74492001 eV

  Derived energy quantities:
  | Kinetic energy                :         228.14110639 Ha        6208.03536621 eV
  | Electrostatic energy          :        -430.75778264 Ha      -11721.51564980 eV
  | Energy correction for multipole
  | error in Hartree potential    :           0.00000000 Ha           0.00000000 eV
  | Sum of eigenvalues per atom                           :        -356.06747919 eV
  | Total energy (T->0) per atom                          :        -626.67420991 eV  <-- do not rely on this value for anything but (periodic) metals
  | Electronic free energy per atom                       :        -626.67449200 eV
  Initialize hartree_potential_storage
  Max. number of atoms included in rho_multipole:           10

  End scf initialization - timings             :  max(cpu_time)    wall_clock(cpu1)
  | Time for scf. initialization               :        0.799 s           0.799 s
  | Boundary condition initialization          :        0.001 s           0.004 s
  | Integration                                :        0.512 s           0.512 s
  | Solution of K.-S. eqns.                    :        0.075 s           0.075 s
  | Grid partitioning                          :        0.098 s           0.098 s
  | Preloading free-atom quantities on grid    :        0.013 s           0.013 s
  | Free-atom superposition energy             :        0.034 s           0.034 s
  | Total energy evaluation                    :        0.000 s           0.001 s
------------------------------------------------------------

------------------------------------------------------------
          Begin self-consistency iteration #    1

  Date     :  20150727, Time     :  123209.230
------------------------------------------------------------
  Evaluating new KS density.
  Integration grid: deviation in total charge (<rho> - N_e) =  -5.951364E-10
  Pulay mixing of updated and previous charge densities.

  Evaluating partitioned Hartree potential by multipole expansion.
  | Analytical far-field extrapolation by fixed multipoles:
  | Hartree multipole sum: apparent total charge =  -0.478008E-06
  Summing up the Hartree potential.
  Time summed over all CPUs for potential: real work        1.145 s, elapsed        1.153 s
  | RMS charge density error from multipole expansion :   0.131646E-02

  Integrating Hamiltonian matrix: batch-based integration.
  Time summed over all CPUs for integration: real work        2.650 s, elapsed        2.691 s

  Updating Kohn-Sham eigenvalues, eigenvectors, occupation numbers, and Fermi level.
  Solving generalized eigenproblem
  Updating Kohn-Sham eigenvalues and eigenfunctions.
  Solving real generalised eigenvalue problem by standard LAPACK (fast)
  Determining occupation numbers for Kohn-Sham eigenstates.
  | Chemical potential (Fermi level) in eV                 : -.26363127E+01
  | Error in electron count due to remaining E_F inaccuracy: -.63948846E-12
  | Maximum occupation number of highest empty state:  0.00E+00

  Writing Kohn-Sham eigenvalues.

  State    Occupation    Eigenvalue [Ha]    Eigenvalue [eV]
      1       2.00000         -19.008841         -517.25688
      2       2.00000         -18.987747         -516.68288
      3       2.00000         -18.965736         -516.08393
      4       2.00000          -1.096627          -29.84073
      5       2.00000          -1.070267          -29.12346
      6       2.00000          -1.049892          -28.56902
      7       2.00000          -0.622204          -16.93103
      8       2.00000          -0.615446          -16.74713
      9       2.00000          -0.584726          -15.91121
     10       2.00000          -0.579314          -15.76392
     11       2.00000          -0.483965          -13.16935
     12       2.00000          -0.462400          -12.58255
     13       2.00000          -0.454795          -12.37559
     14       2.00000          -0.410706          -11.17588
     15       2.00000          -0.389084          -10.58752
     16       1.00000          -0.096883           -2.63631
     17       0.00000          -0.061783           -1.68120
     18       0.00000          -0.052892           -1.43925
     19       0.00000          -0.025232           -0.68660
     20       0.00000           0.000305            0.00831
     21       0.00000           0.004961            0.13500
     22       0.00000           0.053495            1.45566
     23       0.00000           0.070571            1.92034
     24       0.00000           0.079442            2.16172
     25       0.00000           0.096727            2.63207
     26       0.00000           0.110689            3.01201
     27       0.00000           0.116829            3.17908
     28       0.00000           0.123827            3.36950
     29       0.00000           0.131750            3.58510
     30       0.00000           0.136768            3.72165
     31       0.00000           0.147492            4.01347
     32       0.00000           0.173833            4.73024
     33       0.00000           0.190959            5.19625
     34       0.00000           0.210925            5.73955
     35       0.00000           0.236408            6.43299
     36       0.00000           0.245660            6.68475
     37       0.00000           0.271391            7.38493
     38       0.00000           0.292388            7.95627
     39       0.00000           0.332089            9.03661
     40       0.00000           0.339223            9.23074
     41       0.00000           0.361888            9.84747
     42       0.00000           0.369185           10.04603
     43       0.00000           0.392580           10.68265
     44       0.00000           0.409690           11.14824
     45       0.00000           0.411961           11.21004
     46       0.00000           0.425102           11.56761
     47       0.00000           0.450685           12.26375
     48       0.00000           0.472365           12.85370
     49       0.00000           0.499722           13.59814
     50       0.00000           0.512441           13.94423
     51       0.00000           0.537520           14.62665
     52       0.00000           0.558422           15.19545
     53       0.00000           0.629954           17.14192
     54       0.00000           0.673199           18.31867
     55       0.00000           0.708780           19.28690
     56       0.00000           0.745533           20.28698

  Highest occupied state (VBM) at    -10.58752027 eV
  | Occupation number:      2.00000000

  Lowest unoccupied state (CBM) at    -2.63631265 eV
  | Occupation number:      1.00000000

  Overall HOMO-LUMO gap:      7.95120762 eV.

  Total energy components:
  | Sum of eigenvalues            :        -129.66038104 Ha       -3528.23848298 eV
  | XC energy correction          :         -27.81199388 Ha        -756.80285922 eV
  | XC potential correction       :          35.54630885 Ha         967.26427768 eV
  | Free-atom electrostatic energy:        -107.14033493 Ha       -2915.43684925 eV
  | Hartree energy correction     :          -1.16098364 Ha         -31.59197219 eV
  | van der Waals energy corr.    :           0.00000000 Ha           0.00000000 eV
  | Entropy correction            :          -0.00010367 Ha          -0.00282095 eV
  | ---------------------------
  | Total energy                  :        -230.22738464 Ha       -6264.80588595 eV
  | Total energy, T -> 0          :        -230.22748831 Ha       -6264.80870690 eV  <-- do not rely on this value for anything but (periodic) metals
  | Electronic free energy        :        -230.22759198 Ha       -6264.81152785 eV

  Derived energy quantities:
  | Kinetic energy                :         228.94344204 Ha        6229.86803023 eV
  | Electrostatic energy          :        -431.35883281 Ha      -11737.87105696 eV
  | Energy correction for multipole
  | error in Hartree potential    :           0.00039738 Ha           0.01081314 eV
  | Sum of eigenvalues per atom                           :        -352.82384830 eV
  | Total energy (T->0) per atom                          :        -626.48087069 eV  <-- do not rely on this value for anything but (periodic) metals
  | Electronic free energy per atom                       :        -626.48115278 eV

  Self-consistency convergence accuracy:
  | Change of charge density      : 0.4908E+00
  | Change of sum of eigenvalues  : 0.3244E+02 eV
  | Change of total energy        : 0.1933E+01 eV

  End self-consistency iteration #     1       :  max(cpu_time)    wall_clock(cpu1)
  | Time for this iteration                    :        0.741 s           0.740 s
  | Charge density update                      :        0.231 s           0.230 s
  | Density mixing                             :        0.002 s           0.002 s
  | Hartree multipole update                   :        0.004 s           0.004 s
  | Hartree multipole summation                :        0.144 s           0.145 s
  | Integration                                :        0.338 s           0.337 s
  | Solution of K.-S. eqns.                    :        0.018 s           0.019 s
  | Total energy evaluation                    :        0.000 s           0.001 s
------------------------------------------------------------

------------------------------------------------------------
          Begin self-consistency iteration #    2

  Date     :  20150727, Time     :  123209.971
------------------------------------------------------------
  Evaluating new KS density.
  Integration grid: deviation in total charge (<rho> - N_e) =  -6.075140E-13
  Pulay mixing of updated and previous charge densities.

  Evaluating partitioned Hartree potential by multipole expansion.
  | Analytical far-field extrapolation by fixed multipoles:
  | Hartree multipole sum: apparent total charge =  -0.188977E-05
  Summing up the Hartree potential.
  Time summed over all CPUs for potential: real work        1.145 s, elapsed        1.152 s
  | RMS charge density error from multipole expansion :   0.532450E-02

  Integrating Hamiltonian matrix: batch-based integration.
  Time summed over all CPUs for integration: real work        2.647 s, elapsed        2.675 s

  Updating Kohn-Sham eigenvalues, eigenvectors, occupation numbers, and Fermi level.
  Solving generalized eigenproblem
  Updating Kohn-Sham eigenvalues and eigenfunctions.
  Solving real generalised eigenvalue problem by standard LAPACK (fast)
  Determining occupation numbers for Kohn-Sham eigenstates.
  | Chemical potential (Fermi level) in eV                 : -.22018147E+01
  | Error in electron count due to remaining E_F inaccuracy: -.62208017E-11
  | Maximum occupation number of highest empty state:  0.00E+00

  Highest occupied state (VBM) at     -7.90599018 eV
  | Occupation number:      2.00000000

  Lowest unoccupied state (CBM) at    -2.20181469 eV
  | Occupation number:      1.00000000

  Overall HOMO-LUMO gap:      5.70417548 eV.

  Total energy components:
  | Sum of eigenvalues            :        -126.84272527 Ha       -3451.56616828 eV
  | XC energy correction          :         -28.13613933 Ha        -765.62330558 eV
  | XC potential correction       :          35.96914503 Ha         978.77023562 eV
  | Free-atom electrostatic energy:        -107.14033493 Ha       -2915.43684925 eV
  | Hartree energy correction     :          -3.99833447 Ha        -108.80021665 eV
  | van der Waals energy corr.    :           0.00000000 Ha           0.00000000 eV
  | Entropy correction            :          -0.00010367 Ha          -0.00282095 eV
  | ---------------------------
  | Total energy                  :        -230.14838896 Ha       -6262.65630414 eV
  | Total energy, T -> 0          :        -230.14849263 Ha       -6262.65912509 eV  <-- do not rely on this value for anything but (periodic) metals
  | Electronic free energy        :        -230.14859630 Ha       -6262.66194604 eV

  Derived energy quantities:
  | Kinetic energy                :         230.60029073 Ha        6274.95317691 eV
  | Electrostatic energy          :        -432.61254037 Ha      -11771.98617547 eV
  | Energy correction for multipole
  | error in Hartree potential    :           0.00105966 Ha           0.02883481 eV
  | Sum of eigenvalues per atom                           :        -345.15661683 eV
  | Total energy (T->0) per atom                          :        -626.26591251 eV  <-- do not rely on this value for anything but (periodic) metals
  | Electronic free energy per atom                       :        -626.26619460 eV

  Self-consistency convergence accuracy:
  | Change of charge density      : 0.3731E+00
  | Change of sum of eigenvalues  : 0.7667E+02 eV
  | Change of total energy        : 0.2150E+01 eV

  End self-consistency iteration #     2       :  max(cpu_time)    wall_clock(cpu1)
  | Time for this iteration                    :        0.736 s           0.736 s
  | Charge density update                      :        0.228 s           0.228 s
  | Density mixing                             :        0.003 s           0.004 s
  | Hartree multipole update                   :        0.004 s           0.004 s
  | Hartree multipole summation                :        0.145 s           0.145 s
  | Integration                                :        0.335 s           0.335 s
  | Solution of K.-S. eqns.                    :        0.018 s           0.018 s
  | Total energy evaluation                    :        0.001 s           0.000 s
------------------------------------------------------------

------------------------------------------------------------
          Begin self-consistency iteration #    3

  Date     :  20150727, Time     :  123210.707
------------------------------------------------------------
  Evaluating new KS density.
  Integration grid: deviation in total charge (<rho> - N_e) =  -6.217249E-12
  Pulay mixing of updated and previous charge densities.

  Evaluating partitioned Hartree potential by multipole expansion.
  | Analytical far-field extrapolation by fixed multipoles:
  | Hartree multipole sum: apparent total charge =  -0.165975E-05
  Summing up the Hartree potential.
  Time summed over all CPUs for potential: real work        1.145 s, elapsed        1.152 s
  | RMS charge density error from multipole expansion :   0.110045E-01

  Integrating Hamiltonian matrix: batch-based integration.
  Time summed over all CPUs for integration: real work        2.647 s, elapsed        2.676 s

  Updating Kohn-Sham eigenvalues, eigenvectors, occupation numbers, and Fermi level.
  Solving generalized eigenproblem
  Updating Kohn-Sham eigenvalues and eigenfunctions.
  Solving real generalised eigenvalue problem by standard LAPACK (fast)
  Determining occupation numbers for Kohn-Sham eigenstates.
  | Chemical potential (Fermi level) in eV                 : -.22447900E+01
  | Error in electron count due to remaining E_F inaccuracy: 0.00000000E+00
  | Maximum occupation number of highest empty state:  0.00E+00

  Highest occupied state (VBM) at     -2.24478995 eV
  | Occupation number:      1.00000000

  Lowest unoccupied state (CBM) at    -2.24478995 eV
  | Occupation number:      1.00000000

  Overall HOMO-LUMO gap:      0.00000000 eV.

  Total energy components:
  | Sum of eigenvalues            :        -127.16343436 Ha       -3460.29310667 eV
  | XC energy correction          :         -28.11629725 Ha        -765.08337509 eV
  | XC potential correction       :          35.93793561 Ha         977.92098389 eV
  | Free-atom electrostatic energy:        -107.14033493 Ha       -2915.43684925 eV
  | Hartree energy correction     :          -3.66601858 Ha         -99.75744107 eV
  | van der Waals energy corr.    :           0.00000000 Ha           0.00000000 eV
  | Entropy correction            :          -0.00010367 Ha          -0.00282095 eV
  | ---------------------------
  | Total energy                  :        -230.14814951 Ha       -6262.64978819 eV
  | Total energy, T -> 0          :        -230.14825317 Ha       -6262.65260914 eV  <-- do not rely on this value for anything but (periodic) metals
  | Electronic free energy        :        -230.14835684 Ha       -6262.65543009 eV

  Derived energy quantities:
  | Kinetic energy                :         229.47343864 Ha        6244.28997135 eV
  | Electrostatic energy          :        -431.50529090 Ha      -11741.85638445 eV
  | Energy correction for multipole
  | error in Hartree potential    :          -0.00060183 Ha          -0.01637664 eV
  | Sum of eigenvalues per atom                           :        -346.02931067 eV
  | Total energy (T->0) per atom                          :        -626.26526091 eV  <-- do not rely on this value for anything but (periodic) metals
  | Electronic free energy per atom                       :        -626.26554301 eV

  Self-consistency convergence accuracy:
  | Change of charge density      : 0.1849E+00
  | Change of sum of eigenvalues  : -.8727E+01 eV
  | Change of total energy        : 0.6516E-02 eV

  End self-consistency iteration #     3       :  max(cpu_time)    wall_clock(cpu1)
  | Time for this iteration                    :        0.735 s           0.735 s
  | Charge density update                      :        0.227 s           0.227 s
  | Density mixing                             :        0.004 s           0.004 s
  | Hartree multipole update                   :        0.004 s           0.004 s
  | Hartree multipole summation                :        0.145 s           0.145 s
  | Integration                                :        0.336 s           0.335 s
  | Solution of K.-S. eqns.                    :        0.018 s           0.019 s
  | Total energy evaluation                    :        0.000 s           0.001 s
------------------------------------------------------------

------------------------------------------------------------
          Begin self-consistency iteration #    4

  Date     :  20150727, Time     :  123211.442
------------------------------------------------------------
  Evaluating new KS density.
  Integration grid: deviation in total charge (<rho> - N_e) =   7.105427E-15
  Pulay mixing of updated and previous charge densities.

  Evaluating partitioned Hartree potential by multipole expansion.
  | Analytical far-field extrapolation by fixed multipoles:
  | Hartree multipole sum: apparent total charge =  -0.208796E-05
  Summing up the Hartree potential.
  Time summed over all CPUs for potential: real work        1.144 s, elapsed        1.151 s
  | RMS charge density error from multipole expansion :   0.140435E-01

  Integrating Hamiltonian matrix: batch-based integration.
  Time summed over all CPUs for integration: real work        2.636 s, elapsed        2.655 s

  Updating Kohn-Sham eigenvalues, eigenvectors, occupation numbers, and Fermi level.
  Solving generalized eigenproblem
  Updating Kohn-Sham eigenvalues and eigenfunctions.
  Solving real generalised eigenvalue problem by standard LAPACK (fast)
  Determining occupation numbers for Kohn-Sham eigenstates.
  | Chemical potential (Fermi level) in eV                 : -.21394318E+01
  | Error in electron count due to remaining E_F inaccuracy: -.10060575E-09
  | Maximum occupation number of highest empty state:  0.00E+00

  Highest occupied state (VBM) at     -6.93607424 eV
  | Occupation number:      2.00000000

  Lowest unoccupied state (CBM) at    -2.13943177 eV
  | Occupation number:      1.00000000

  Overall HOMO-LUMO gap:      4.79664247 eV.

  Total energy components:
  | Sum of eigenvalues            :        -126.43723190 Ha       -3440.53213242 eV
  | XC energy correction          :         -28.21672310 Ha        -767.81610165 eV
  | XC potential correction       :          36.06765632 Ha         981.45086401 eV
  | Free-atom electrostatic energy:        -107.14033493 Ha       -2915.43684925 eV
  | Hartree energy correction     :          -4.41786626 Ha        -120.21625746 eV
  | van der Waals energy corr.    :           0.00000000 Ha           0.00000000 eV
  | Entropy correction            :          -0.00010367 Ha          -0.00282095 eV
  | ---------------------------
  | Total energy                  :        -230.14449988 Ha       -6262.55047676 eV
  | Total energy, T -> 0          :        -230.14460355 Ha       -6262.55329771 eV  <-- do not rely on this value for anything but (periodic) metals
  | Electronic free energy        :        -230.14470721 Ha       -6262.55611866 eV

  Derived energy quantities:
  | Kinetic energy                :         229.58365294 Ha        6247.28905514 eV
  | Electrostatic energy          :        -431.51142972 Ha      -11742.02343025 eV
  | Energy correction for multipole
  | error in Hartree potential    :          -0.00098371 Ha          -0.02676806 eV
  | Sum of eigenvalues per atom                           :        -344.05321324 eV
  | Total energy (T->0) per atom                          :        -626.25532977 eV  <-- do not rely on this value for anything but (periodic) metals
  | Electronic free energy per atom                       :        -626.25561187 eV

  Self-consistency convergence accuracy:
  | Change of charge density      : 0.8729E-01
  | Change of sum of eigenvalues  : 0.1976E+02 eV
  | Change of total energy        : 0.9931E-01 eV

  End self-consistency iteration #     4       :  max(cpu_time)    wall_clock(cpu1)
  | Time for this iteration                    :        0.733 s           0.732 s
  | Charge density update                      :        0.227 s           0.226 s
  | Density mixing                             :        0.005 s           0.005 s
  | Hartree multipole update                   :        0.004 s           0.004 s
  | Hartree multipole summation                :        0.145 s           0.144 s
  | Integration                                :        0.333 s           0.332 s
  | Solution of K.-S. eqns.                    :        0.018 s           0.019 s
  | Total energy evaluation                    :        0.000 s           0.001 s
------------------------------------------------------------

------------------------------------------------------------
          Begin self-consistency iteration #    5

  Date     :  20150727, Time     :  123212.176
------------------------------------------------------------
  Evaluating new KS density.
  Integration grid: deviation in total charge (<rho> - N_e) =  -1.005880E-10
  Pulay mixing of updated and previous charge densities.

  Evaluating partitioned Hartree potential by multipole expansion.
  | Analytical far-field extrapolation by fixed multipoles:
  | Hartree multipole sum: apparent total charge =  -0.202250E-05
  Summing up the Hartree potential.
  Time summed over all CPUs for potential: real work        1.144 s, elapsed        1.151 s
  | RMS charge density error from multipole expansion :   0.140676E-01

  Integrating Hamiltonian matrix: batch-based integration.
  Time summed over all CPUs for integration: real work        2.636 s, elapsed        2.657 s

  Updating Kohn-Sham eigenvalues, eigenvectors, occupation numbers, and Fermi level.
  Solving generalized eigenproblem
  Updating Kohn-Sham eigenvalues and eigenfunctions.
  Solving real generalised eigenvalue problem by standard LAPACK (fast)
  Determining occupation numbers for Kohn-Sham eigenstates.
  | Chemical potential (Fermi level) in eV                 : -.21355090E+01
  | Error in electron count due to remaining E_F inaccuracy: -.11937118E-11
  | Maximum occupation number of highest empty state:  0.00E+00

  Highest occupied state (VBM) at     -6.97429268 eV
  | Occupation number:      2.00000000

  Lowest unoccupied state (CBM) at    -2.13550901 eV
  | Occupation number:      1.00000000

  Overall HOMO-LUMO gap:      4.83878366 eV.

  Total energy components:
  | Sum of eigenvalues            :        -126.46368620 Ha       -3441.25199044 eV
  | XC energy correction          :         -28.21343617 Ha        -767.72665967 eV
  | XC potential correction       :          36.06327831 Ha         981.33173243 eV
  | Free-atom electrostatic energy:        -107.14033493 Ha       -2915.43684925 eV
  | Hartree energy correction     :          -4.39024815 Ha        -119.46473050 eV
  | van der Waals energy corr.    :           0.00000000 Ha           0.00000000 eV
  | Entropy correction            :          -0.00010367 Ha          -0.00282095 eV
  | ---------------------------
  | Total energy                  :        -230.14442714 Ha       -6262.54849743 eV
  | Total energy, T -> 0          :        -230.14453081 Ha       -6262.55131838 eV  <-- do not rely on this value for anything but (periodic) metals
  | Electronic free energy        :        -230.14463448 Ha       -6262.55413933 eV

  Derived energy quantities:
  | Kinetic energy                :         229.59734448 Ha        6247.66162076 eV
  | Electrostatic energy          :        -431.52833545 Ha      -11742.48345852 eV
  | Energy correction for multipole
  | error in Hartree potential    :          -0.00099410 Ha          -0.02705071 eV
  | Sum of eigenvalues per atom                           :        -344.12519904 eV
  | Total energy (T->0) per atom                          :        -626.25513184 eV  <-- do not rely on this value for anything but (periodic) metals
  | Electronic free energy per atom                       :        -626.25541393 eV

  Self-consistency convergence accuracy:
  | Change of charge density      : 0.1190E-01
  | Change of sum of eigenvalues  : -.7199E+00 eV
  | Change of total energy        : 0.1979E-02 eV

  End self-consistency iteration #     5       :  max(cpu_time)    wall_clock(cpu1)
  | Time for this iteration                    :        0.733 s           0.733 s
  | Charge density update                      :        0.226 s           0.225 s
  | Density mixing                             :        0.006 s           0.007 s
  | Hartree multipole update                   :        0.004 s           0.004 s
  | Hartree multipole summation                :        0.145 s           0.144 s
  | Integration                                :        0.333 s           0.333 s
  | Solution of K.-S. eqns.                    :        0.018 s           0.019 s
  | Total energy evaluation                    :        0.000 s           0.001 s
------------------------------------------------------------

------------------------------------------------------------
          Begin self-consistency iteration #    6

  Date     :  20150727, Time     :  123212.910
------------------------------------------------------------
  Evaluating new KS density.
  Integration grid: deviation in total charge (<rho> - N_e) =  -1.200817E-12
  Pulay mixing of updated and previous charge densities.

  Evaluating partitioned Hartree potential by multipole expansion.
  | Analytical far-field extrapolation by fixed multipoles:
  | Hartree multipole sum: apparent total charge =  -0.202750E-05
  Summing up the Hartree potential.
  Time summed over all CPUs for potential: real work        1.144 s, elapsed        1.151 s
  | RMS charge density error from multipole expansion :   0.142211E-01

  Integrating Hamiltonian matrix: batch-based integration.
  Time summed over all CPUs for integration: real work        2.635 s, elapsed        2.657 s

  Updating Kohn-Sham eigenvalues, eigenvectors, occupation numbers, and Fermi level.
  Solving generalized eigenproblem
  Updating Kohn-Sham eigenvalues and eigenfunctions.
  Solving real generalised eigenvalue problem by standard LAPACK (fast)
  Determining occupation numbers for Kohn-Sham eigenstates.
  | Chemical potential (Fermi level) in eV                 : -.21381861E+01
  | Error in electron count due to remaining E_F inaccuracy: 0.00000000E+00
  | Maximum occupation number of highest empty state:  0.00E+00

  Highest occupied state (VBM) at     -2.13818609 eV
  | Occupation number:      1.00000000

  Lowest unoccupied state (CBM) at    -2.13818609 eV
  | Occupation number:      1.00000000

  Overall HOMO-LUMO gap:      0.00000000 eV.

  Total energy components:
  | Sum of eigenvalues            :        -126.47720049 Ha       -3441.61973304 eV
  | XC energy correction          :         -28.21256002 Ha        -767.70281843 eV
  | XC potential correction       :          36.06197811 Ha         981.29635214 eV
  | Free-atom electrostatic energy:        -107.14033493 Ha       -2915.43684925 eV
  | Hartree energy correction     :          -4.37631492 Ha        -119.08558800 eV
  | van der Waals energy corr.    :           0.00000000 Ha           0.00000000 eV
  | Entropy correction            :          -0.00010367 Ha          -0.00282095 eV
  | ---------------------------
  | Total energy                  :        -230.14443225 Ha       -6262.54863657 eV
  | Total energy, T -> 0          :        -230.14453592 Ha       -6262.55145752 eV  <-- do not rely on this value for anything but (periodic) metals
  | Electronic free energy        :        -230.14463959 Ha       -6262.55427847 eV

  Derived energy quantities:
  | Kinetic energy                :         229.59122414 Ha        6247.49507803 eV
  | Electrostatic energy          :        -431.52309638 Ha      -11742.34089618 eV
  | Energy correction for multipole
  | error in Hartree potential    :          -0.00103559 Ha          -0.02817976 eV
  | Sum of eigenvalues per atom                           :        -344.16197330 eV
  | Total energy (T->0) per atom                          :        -626.25514575 eV  <-- do not rely on this value for anything but (periodic) metals
  | Electronic free energy per atom                       :        -626.25542785 eV

  Self-consistency convergence accuracy:
  | Change of charge density      : 0.6378E-02
  | Change of sum of eigenvalues  : -.3677E+00 eV
  | Change of total energy        : -.1391E-03 eV

  End self-consistency iteration #     6       :  max(cpu_time)    wall_clock(cpu1)
  | Time for this iteration                    :        0.735 s           0.734 s
  | Charge density update                      :        0.226 s           0.226 s
  | Density mixing                             :        0.007 s           0.007 s
  | Hartree multipole update                   :        0.004 s           0.004 s
  | Hartree multipole summation                :        0.145 s           0.144 s
  | Integration                                :        0.333 s           0.333 s
  | Solution of K.-S. eqns.                    :        0.018 s           0.019 s
  | Total energy evaluation                    :        0.001 s           0.001 s
------------------------------------------------------------

------------------------------------------------------------
          Begin self-consistency iteration #    7

  Date     :  20150727, Time     :  123213.644
------------------------------------------------------------
  Evaluating new KS density.
  Integration grid: deviation in total charge (<rho> - N_e) =   0.000000E+00
  Pulay mixing of updated and previous charge densities.

  Evaluating partitioned Hartree potential by multipole expansion.
  | Analytical far-field extrapolation by fixed multipoles:
  | Hartree multipole sum: apparent total charge =  -0.204052E-05
  Summing up the Hartree potential.
  Time summed over all CPUs for potential: real work        1.144 s, elapsed        1.153 s
  | RMS charge density error from multipole expansion :   0.143083E-01

  Integrating Hamiltonian matrix: batch-based integration.
  Time summed over all CPUs for integration: real work        2.637 s, elapsed        2.661 s

  Updating Kohn-Sham eigenvalues, eigenvectors, occupation numbers, and Fermi level.
  Solving generalized eigenproblem
  Updating Kohn-Sham eigenvalues and eigenfunctions.
  Solving real generalised eigenvalue problem by standard LAPACK (fast)
  Determining occupation numbers for Kohn-Sham eigenstates.
  | Chemical potential (Fermi level) in eV                 : -.21514320E+01
  | Error in electron count due to remaining E_F inaccuracy: 0.14921397E-11
  | Maximum occupation number of highest empty state:  0.00E+00

  Highest occupied state (VBM) at     -2.15143196 eV
  | Occupation number:      1.00000000

  Lowest unoccupied state (CBM) at    -1.06609199 eV
  | Occupation number:      0.00000000

  Overall HOMO-LUMO gap:      1.08533998 eV.

  Total energy components:
  | Sum of eigenvalues            :        -126.50557927 Ha       -3442.39195883 eV
  | XC energy correction          :         -28.20952226 Ha        -767.62015677 eV
  | XC potential correction       :          36.05783042 Ha         981.18348766 eV
  | Free-atom electrostatic energy:        -107.14033493 Ha       -2915.43684925 eV
  | Hartree energy correction     :          -4.34681949 Ha        -118.28297649 eV
  | van der Waals energy corr.    :           0.00000000 Ha           0.00000000 eV
  | Entropy correction            :          -0.00010367 Ha          -0.00282095 eV
  | ---------------------------
  | Total energy                  :        -230.14442553 Ha       -6262.54845368 eV
  | Total energy, T -> 0          :        -230.14452920 Ha       -6262.55127462 eV  <-- do not rely on this value for anything but (periodic) metals
  | Electronic free energy        :        -230.14463287 Ha       -6262.55409557 eV

  Derived energy quantities:
  | Kinetic energy                :         229.61189799 Ha        6248.05764202 eV
  | Electrostatic energy          :        -431.54680126 Ha      -11742.98593893 eV
  | Energy correction for multipole
  | error in Hartree potential    :          -0.00106112 Ha          -0.02887462 eV
  | Sum of eigenvalues per atom                           :        -344.23919588 eV
  | Total energy (T->0) per atom                          :        -626.25512746 eV  <-- do not rely on this value for anything but (periodic) metals
  | Electronic free energy per atom                       :        -626.25540956 eV

  Self-consistency convergence accuracy:
  | Change of charge density      : 0.4618E-02
  | Change of sum of eigenvalues  : -.7722E+00 eV
  | Change of total energy        : 0.1829E-03 eV

  End self-consistency iteration #     7       :  max(cpu_time)    wall_clock(cpu1)
  | Time for this iteration                    :        0.736 s           0.735 s
  | Charge density update                      :        0.226 s           0.225 s
  | Density mixing                             :        0.008 s           0.008 s
  | Hartree multipole update                   :        0.004 s           0.004 s
  | Hartree multipole summation                :        0.145 s           0.145 s
  | Integration                                :        0.333 s           0.334 s
  | Solution of K.-S. eqns.                    :        0.019 s           0.018 s
  | Total energy evaluation                    :        0.000 s           0.001 s
------------------------------------------------------------

------------------------------------------------------------
          Begin self-consistency iteration #    8

  Date     :  20150727, Time     :  123214.381
------------------------------------------------------------
  Evaluating new KS density.
  Integration grid: deviation in total charge (<rho> - N_e) =   1.506351E-12
  Pulay mixing of updated and previous charge densities.

  Evaluating partitioned Hartree potential by multipole expansion.
  | Analytical far-field extrapolation by fixed multipoles:
  | Hartree multipole sum: apparent total charge =  -0.202930E-05
  Summing up the Hartree potential.
  Time summed over all CPUs for potential: real work        1.144 s, elapsed        1.152 s
  | RMS charge density error from multipole expansion :   0.143056E-01

  Integrating Hamiltonian matrix: batch-based integration.
  Time summed over all CPUs for integration: real work        2.629 s, elapsed        2.657 s

  Updating Kohn-Sham eigenvalues, eigenvectors, occupation numbers, and Fermi level.
  Solving generalized eigenproblem
  Updating Kohn-Sham eigenvalues and eigenfunctions.
  Solving real generalised eigenvalue problem by standard LAPACK (fast)
  Determining occupation numbers for Kohn-Sham eigenstates.
  | Chemical potential (Fermi level) in eV                 : -.21547846E+01
  | Error in electron count due to remaining E_F inaccuracy: 0.20367708E-10
  | Maximum occupation number of highest empty state:  0.00E+00

  Highest occupied state (VBM) at     -2.15478463 eV
  | Occupation number:      1.00000000

  Lowest unoccupied state (CBM) at    -1.07094824 eV
  | Occupation number:      0.00000000

  Overall HOMO-LUMO gap:      1.08383639 eV.

  Total energy components:
  | Sum of eigenvalues            :        -126.52322534 Ha       -3442.87213289 eV
  | XC energy correction          :         -28.20769094 Ha        -767.57032402 eV
  | XC potential correction       :          36.05540221 Ha         981.11741285 eV
  | Free-atom electrostatic energy:        -107.14033493 Ha       -2915.43684925 eV
  | Hartree energy correction     :          -4.32857482 Ha        -117.78651365 eV
  | van der Waals energy corr.    :           0.00000000 Ha           0.00000000 eV
  | Entropy correction            :          -0.00010367 Ha          -0.00282095 eV
  | ---------------------------
  | Total energy                  :        -230.14442381 Ha       -6262.54840695 eV
  | Total energy, T -> 0          :        -230.14452748 Ha       -6262.55122790 eV  <-- do not rely on this value for anything but (periodic) metals
  | Electronic free energy        :        -230.14463115 Ha       -6262.55404885 eV

  Derived energy quantities:
  | Kinetic energy                :         229.61704039 Ha        6248.19757388 eV
  | Electrostatic energy          :        -431.55377327 Ha      -11743.17565681 eV
  | Energy correction for multipole
  | error in Hartree potential    :          -0.00106679 Ha          -0.02902891 eV
  | Sum of eigenvalues per atom                           :        -344.28721329 eV
  | Total energy (T->0) per atom                          :        -626.25512279 eV  <-- do not rely on this value for anything but (periodic) metals
  | Electronic free energy per atom                       :        -626.25540489 eV

  Self-consistency convergence accuracy:
  | Change of charge density      : 0.1507E-02
  | Change of sum of eigenvalues  : -.4802E+00 eV
  | Change of total energy        : 0.4672E-04 eV

  End self-consistency iteration #     8       :  max(cpu_time)    wall_clock(cpu1)
  | Time for this iteration                    :        0.737 s           0.736 s
  | Charge density update                      :        0.227 s           0.226 s
  | Density mixing                             :        0.009 s           0.009 s
  | Hartree multipole update                   :        0.004 s           0.004 s
  | Hartree multipole summation                :        0.145 s           0.145 s
  | Integration                                :        0.333 s           0.333 s
  | Solution of K.-S. eqns.                    :        0.018 s           0.018 s
  | Total energy evaluation                    :        0.000 s           0.001 s
------------------------------------------------------------

------------------------------------------------------------
          Begin self-consistency iteration #    9

  Date     :  20150727, Time     :  123215.118
------------------------------------------------------------
  Evaluating new KS density.
  Integration grid: deviation in total charge (<rho> - N_e) =   2.038547E-11
  Pulay mixing of updated and previous charge densities.

  Evaluating partitioned Hartree potential by multipole expansion.
  | Analytical far-field extrapolation by fixed multipoles:
  | Hartree multipole sum: apparent total charge =  -0.202921E-05
  Summing up the Hartree potential.
  Time summed over all CPUs for potential: real work        1.144 s, elapsed        1.151 s
  | RMS charge density error from multipole expansion :   0.143034E-01

  Integrating Hamiltonian matrix: batch-based integration.
  Time summed over all CPUs for integration: real work        2.632 s, elapsed        2.669 s

  Updating Kohn-Sham eigenvalues, eigenvectors, occupation numbers, and Fermi level.
  Solving generalized eigenproblem
  Updating Kohn-Sham eigenvalues and eigenfunctions.
  Solving real generalised eigenvalue problem by standard LAPACK (fast)
  Determining occupation numbers for Kohn-Sham eigenstates.
  | Chemical potential (Fermi level) in eV                 : -.21549949E+01
  | Error in electron count due to remaining E_F inaccuracy: 0.26929570E-10
  | Maximum occupation number of highest empty state:  0.00E+00

  Highest occupied state (VBM) at     -2.15499488 eV
  | Occupation number:      1.00000000

  Lowest unoccupied state (CBM) at    -1.07083034 eV
  | Occupation number:      0.00000000

  Overall HOMO-LUMO gap:      1.08416454 eV.

  Total energy components:
  | Sum of eigenvalues            :        -126.52270467 Ha       -3442.85796463 eV
  | XC energy correction          :         -28.20774213 Ha        -767.57171695 eV
  | XC potential correction       :          36.05547123 Ha         981.11929110 eV
  | Free-atom electrostatic energy:        -107.14033493 Ha       -2915.43684925 eV
  | Hartree energy correction     :          -4.32911315 Ha        -117.80116248 eV
  | van der Waals energy corr.    :           0.00000000 Ha           0.00000000 eV
  | Entropy correction            :          -0.00010367 Ha          -0.00282095 eV
  | ---------------------------
  | Total energy                  :        -230.14442364 Ha       -6262.54840220 eV
  | Total energy, T -> 0          :        -230.14452731 Ha       -6262.55122315 eV  <-- do not rely on this value for anything but (periodic) metals
  | Electronic free energy        :        -230.14463098 Ha       -6262.55404409 eV

  Derived energy quantities:
  | Kinetic energy                :         229.61749239 Ha        6248.20987326 eV
  | Electrostatic energy          :        -431.55417390 Ha      -11743.18655851 eV
  | Energy correction for multipole
  | error in Hartree potential    :          -0.00106642 Ha          -0.02901888 eV
  | Sum of eigenvalues per atom                           :        -344.28579646 eV
  | Total energy (T->0) per atom                          :        -626.25512231 eV  <-- do not rely on this value for anything but (periodic) metals
  | Electronic free energy per atom                       :        -626.25540441 eV

  Self-consistency convergence accuracy:
  | Change of charge density      : 0.5913E-03
  | Change of sum of eigenvalues  : 0.1417E-01 eV
  | Change of total energy        : 0.4756E-05 eV

  End self-consistency iteration #     9       :  max(cpu_time)    wall_clock(cpu1)
  | Time for this iteration                    :        0.739 s           0.739 s
  | Charge density update                      :        0.227 s           0.226 s
  | Density mixing                             :        0.010 s           0.010 s
  | Hartree multipole update                   :        0.004 s           0.004 s
  | Hartree multipole summation                :        0.144 s           0.144 s
  | Integration                                :        0.334 s           0.335 s
  | Solution of K.-S. eqns.                    :        0.018 s           0.018 s
  | Total energy evaluation                    :        0.001 s           0.000 s
------------------------------------------------------------

------------------------------------------------------------
          Begin self-consistency iteration #   10

  Date     :  20150727, Time     :  123215.857
------------------------------------------------------------
  Evaluating new KS density.
  Integration grid: deviation in total charge (<rho> - N_e) =   2.694378E-11
  Pulay mixing of updated and previous charge densities.

  Evaluating partitioned Hartree potential by multipole expansion.
  | Analytical far-field extrapolation by fixed multipoles:
  | Hartree multipole sum: apparent total charge =  -0.202580E-05
  Summing up the Hartree potential.
  Time summed over all CPUs for potential: real work        1.144 s, elapsed        1.151 s
  | RMS charge density error from multipole expansion :   0.143067E-01

  Integrating Hamiltonian matrix: batch-based integration.
  Time summed over all CPUs for integration: real work        2.630 s, elapsed        2.667 s

  Updating Kohn-Sham eigenvalues, eigenvectors, occupation numbers, and Fermi level.
  Solving generalized eigenproblem
  Updating Kohn-Sham eigenvalues and eigenfunctions.
  Solving real generalised eigenvalue problem by standard LAPACK (fast)
  Determining occupation numbers for Kohn-Sham eigenstates.
  | Chemical potential (Fermi level) in eV                 : -.21557610E+01
  | Error in electron count due to remaining E_F inaccuracy: 0.69711348E-10
  | Maximum occupation number of highest empty state:  0.00E+00

  Highest occupied state (VBM) at     -2.15576098 eV
  | Occupation number:      1.00000000

  Lowest unoccupied state (CBM) at    -1.07031969 eV
  | Occupation number:      0.00000000

  Overall HOMO-LUMO gap:      1.08544129 eV.

  Total energy components:
  | Sum of eigenvalues            :        -126.51941754 Ha       -3442.76851742 eV
  | XC energy correction          :         -28.20822632 Ha        -767.58489239 eV
  | XC potential correction       :          36.05610824 Ha         981.13662492 eV
  | Free-atom electrostatic energy:        -107.14033493 Ha       -2915.43684925 eV
  | Hartree energy correction     :          -4.33255304 Ha        -117.89476666 eV
  | van der Waals energy corr.    :           0.00000000 Ha           0.00000000 eV
  | Entropy correction            :          -0.00010367 Ha          -0.00282095 eV
  | ---------------------------
  | Total energy                  :        -230.14442359 Ha       -6262.54840079 eV
  | Total energy, T -> 0          :        -230.14452726 Ha       -6262.55122174 eV  <-- do not rely on this value for anything but (periodic) metals
  | Electronic free energy        :        -230.14463092 Ha       -6262.55404269 eV

  Derived energy quantities:
  | Kinetic energy                :         229.61841242 Ha        6248.23490861 eV
[...]
  | Atom     7: H
  |   Hirshfeld charge        :      0.13806910
  |   Free atom volume        :     10.44207651
  |   Hirshfeld volume        :      9.51743923
  |   Hirshfeld dipole vector :     -0.07044849      -0.04627757       0.02138923
  |   Hirshfeld dipole moment :      0.08696035
  |   Hirshfeld second moments:      0.04480275       0.01561597      -0.00228575
  |                                  0.01561597       0.06567460       0.01529773
  |                                 -0.00228575       0.01529773       0.06799387
  ----------------------------------------------------------------------
  | Atom     8: O
  |   Hirshfeld charge        :     -0.31147533
  |   Free atom volume        :     23.95238533
  |   Hirshfeld volume        :     23.32460560
  |   Hirshfeld dipole vector :     -0.00726590       0.06850823      -0.00188867
  |   Hirshfeld dipole moment :      0.06891834
  |   Hirshfeld second moments:     -0.02920825      -0.01720665      -0.06433630
  |                                 -0.01720665      -0.01614977      -0.00335196
  |                                 -0.06433630      -0.00335196       0.00400570
  ----------------------------------------------------------------------
  | Atom     9: H
  |   Hirshfeld charge        :      0.13171959
  |   Free atom volume        :     10.44207651
  |   Hirshfeld volume        :      7.28720087
  |   Hirshfeld dipole vector :     -0.06319446       0.08712307       0.06645818
  |   Hirshfeld dipole moment :      0.12649371
  |   Hirshfeld second moments:      0.09211438       0.00062175      -0.02064910
  |                                  0.00062175       0.09167830      -0.00773737
  |                                 -0.02064910      -0.00773737       0.10481020
  ----------------------------------------------------------------------
  | Atom    10: H
  |   Hirshfeld charge        :      0.11274945
  |   Free atom volume        :     10.44207651
  |   Hirshfeld volume        :     10.02696854
  |   Hirshfeld dipole vector :      0.03611455       0.07027635      -0.05365545
  |   Hirshfeld dipole moment :      0.09550881
  |   Hirshfeld second moments:      0.04000754      -0.00283658      -0.00117499
  |                                 -0.00283658       0.06574029      -0.01107108
  |                                 -0.00117499      -0.01107108       0.02704985
  ----------------------------------------------------------------------


  Total energy components:
  | Sum of eigenvalues            :        -126.51921443 Ha       -3442.76299049 eV
  | XC energy correction          :         -28.20823593 Ha        -767.58515395 eV
  | XC potential correction       :          36.05612413 Ha         981.13705722 eV
  | Free-atom electrostatic energy:        -107.14033493 Ha       -2915.43684925 eV
  | Hartree energy correction     :          -4.33276249 Ha        -117.90046602 eV
  | van der Waals energy corr.    :          -0.00086044 Ha          -0.02341373 eV
  | Entropy correction            :          -0.00010367 Ha          -0.00282095 eV
  | ---------------------------
  | Total energy                  :        -230.14528409 Ha       -6262.57181621 eV
  | Total energy, T -> 0          :        -230.14538776 Ha       -6262.57463716 eV  <-- do not rely on this value for anything but (periodic) metals
  | Electronic free energy        :        -230.14549143 Ha       -6262.57745811 eV

  Derived energy quantities:
  | Kinetic energy                :         229.61845097 Ha        6248.23595751 eV
  | Electrostatic energy          :        -431.55463869 Ha      -11743.19920605 eV
  | Energy correction for multipole
  | error in Hartree potential    :          -0.00107215 Ha          -0.02917465 eV
  | Sum of eigenvalues per atom                           :        -344.27629905 eV
  | Total energy (T->0) per atom                          :        -626.25746372 eV  <-- do not rely on this value for anything but (periodic) metals
  | Electronic free energy per atom                       :        -626.25774581 eV

  atomic forces [eV/Ang]:
  -----------------------
  atom #    1
   Hellmann-Feynman + Multipole  : -.216923E+01 -.652918E+01 -.898117E+01
   Pulay + GGA                   : 0.224183E+01 0.769914E+01 0.729823E+01
   Van der Waals               : 0.179581E-02 0.171960E-02 -.735096E-02
   ----------------------------------------------------------------
   Total forces(   1)            : 0.743999E-01 0.117168E+01 -.169029E+01
  atom #    2
   Hellmann-Feynman + Multipole  : 0.466251E+00 -.980845E+00 0.401155E+00
   Pulay + GGA                   : -.752838E-01 0.151596E+00 -.648848E-01
   Van der Waals               : -.719416E-03 0.365524E-02 -.230104E-02
   ----------------------------------------------------------------
   Total forces(   2)            : 0.390248E+00 -.825594E+00 0.333969E+00
  atom #    3
   Hellmann-Feynman + Multipole  : -.369557E+00 -.194000E+00 0.168068E-01
   Pulay + GGA                   : 0.163861E+00 0.437665E-01 0.252229E-01
   Van der Waals               : 0.722538E-03 0.789411E-03 -.235746E-02
   ----------------------------------------------------------------
   Total forces(   3)            : -.204974E+00 -.149445E+00 0.396723E-01
  atom #    4
   Hellmann-Feynman + Multipole  : -.983242E-01 -.786363E-01 0.100139E+01
   Pulay + GGA                   : -.336191E-01 -.431999E-02 0.706530E-01
   Van der Waals               : -.389316E-03 0.162822E-02 0.438988E-03
   ----------------------------------------------------------------
   Total forces(   4)            : -.132333E+00 -.813281E-01 0.107248E+01
  atom #    5
   Hellmann-Feynman + Multipole  : 0.722296E+01 -.554330E+01 -.812595E+01
   Pulay + GGA                   : -.744747E+01 0.404127E+01 0.707944E+01
   Van der Waals               : -.168128E-02 0.208278E-02 0.420199E-02
   ----------------------------------------------------------------
   Total forces(   5)            : -.226196E+00 -.149995E+01 -.104231E+01
  atom #    6
   Hellmann-Feynman + Multipole  : -.190777E+00 0.897770E+00 0.899998E+00
   Pulay + GGA                   : 0.525336E-01 0.783396E-01 0.107137E+00
   Van der Waals               : -.216269E-02 0.323957E-02 0.833362E-02
   ----------------------------------------------------------------
   Total forces(   6)            : -.140406E+00 0.979349E+00 0.101547E+01
  atom #    7
   Hellmann-Feynman + Multipole  : 0.337077E+00 0.564930E+00 0.227118E+00
   Pulay + GGA                   : -.119022E+00 -.715734E-01 0.451338E-01
   Van der Waals               : -.140115E-02 0.268443E-03 0.329534E-02
   ----------------------------------------------------------------
   Total forces(   7)            : 0.216654E+00 0.493625E+00 0.275547E+00
  atom #    8
   Hellmann-Feynman + Multipole  : 0.117882E+01 -.160402E+02 0.185695E+01
   Pulay + GGA                   : 0.115180E+00 0.160821E+02 -.360076E+01
   Van der Waals               : 0.227798E-02 -.705310E-02 -.266850E-02
   ----------------------------------------------------------------
   Total forces(   8)            : 0.129627E+01 0.348089E-01 -.174648E+01
  atom #    9
   Hellmann-Feynman + Multipole  : -.256060E+00 0.584365E+00 0.209695E+00
   Pulay + GGA                   : -.755814E-01 0.988607E-01 0.902811E-01
   Van der Waals               : 0.482964E-03 -.126590E-02 -.413854E-03
   ----------------------------------------------------------------
   Total forces(   9)            : -.331158E+00 0.681959E+00 0.299562E+00
  atom #   10
   Hellmann-Feynman + Multipole  : -.100095E+01 -.860953E+00 0.155346E+01
   Pulay + GGA                   : 0.636213E-01 0.677475E-01 -.118004E+00
   Van der Waals               : 0.107456E-02 -.506426E-02 -.117813E-02
   ----------------------------------------------------------------
   Total forces(  10)            : -.936259E+00 -.798270E+00 0.143428E+01
  Timings for vdw_correction_hirshfeld (Tkatchenko-Scheffler 2009):
  | CPU time:        1.931 s, Wall clock time:        1.932 s.
  Removing unitary transformations (pure translations, rotations) from forces on atoms.
  Atomic forces before filtering:
  | Net force on center of mass :  0.625160E-02 0.684155E-02 -.809826E-02 eV/A
  | Net torque on center of mass:  0.107404E-01 0.589511E-02 -.476567E-02 eV
  Atomic forces after filtering:
  | Net force on center of mass :  0.178406E-15 -.535218E-15 0.178406E-15 eV/A
  | Net torque on center of mass:  0.000000E+00 0.566451E-15 -.566451E-15 eV
 
  Energy and forces in a compact form:
  | Total energy uncorrected      :         -0.626257181621464E+04 eV
  | Total energy corrected        :         -0.626257463716256E+04 eV  <-- do not rely on this value for anything but (periodic) metals
  | Electronic free energy        :         -0.626257745811047E+04 eV
  Total atomic forces (unitary forces cleaned) [eV/Ang]:
  |   1          0.741111061316426E-01          0.117073882945731E+01         -0.168916543531197E+01
  |   2          0.389886481667869E+00         -0.826677501689997E+00          0.334862888733093E+00
  |   3         -0.205300360574331E+00         -0.150255299013712E+00          0.408504615342478E-01
  |   4         -0.132706592647163E+00         -0.821218497862441E-01          0.107360115981464E+01
  |   5         -0.226701617141997E+00         -0.150046659478844E+01         -0.104117393518714E+01
  |   6         -0.141061358786741E+00          0.978968976766002E+00          0.101648493088710E+01
  |   7          0.216176423479684E+00          0.493060177989151E+00          0.276692338136915E+00
  |   8          0.129522477925808E+01          0.342463601918253E-01         -0.174623981766805E+01
  |   9         -0.332342612093711E+00          0.681433390121950E+00          0.299614621758355E+00
  |  10         -0.937286249293332E+00         -0.798926489247847E+00          0.143447278730281E+01
 
  ------------------------------------ 
  Start decomposition of the XC Energy 
  ------------------------------------ 
  Hartree-Fock part   :          0.000000000 Ha              0.000000000 eV
  ------------------------------------ 
  X Energy            :        -27.210879557 Ha           -740.445706197 eV
  C Energy GGA        :         -0.997356373 Ha            -27.139447756 eV
  Total XC Energy     :        -28.208235930 Ha           -767.585153952 eV
  LDA X and C from self-consistent density 
  X Energy LDA        :        -24.513489559 Ha           -667.045989824 eV
  C Energy LDA        :         -2.016228713 Ha            -54.864374763 eV
  ------------------------------------ 
  End decomposition of the XC Energy 
  ------------------------------------ 
  Performing Hirshfeld analysis of fragment charges and moments.
  ----------------------------------------------------------------------
  | Atom     1: O
  |   Hirshfeld charge        :     -0.13808602
  |   Free atom volume        :     23.95238533
  |   Hirshfeld volume        :     24.03879166
  |   Hirshfeld dipole vector :      0.00164817       0.00945524       0.03925839
  |   Hirshfeld dipole moment :      0.04041459
  |   Hirshfeld second moments:      0.04247362      -0.00461395      -0.00979474
  |                                 -0.00461395      -0.01162758      -0.02661090
  |                                 -0.00979474      -0.02661090       0.01670850
  ----------------------------------------------------------------------
  | Atom     2: H
  |   Hirshfeld charge        :      0.00148293
  |   Free atom volume        :     10.44207651
  |   Hirshfeld volume        :     17.64166022
  |   Hirshfeld dipole vector :      0.01263178      -0.06566115       0.04430826
  |   Hirshfeld dipole moment :      0.08021328
  |   Hirshfeld second moments:     -0.10776385      -0.00134825      -0.01136608
  |                                 -0.00134825      -0.14699811       0.02554214
  |                                 -0.01136608       0.02554214      -0.09426190
  ----------------------------------------------------------------------
  | Atom     3: H
  |   Hirshfeld charge        :      0.06152825
  |   Free atom volume        :     10.44207651
  |   Hirshfeld volume        :     16.01756354
  |   Hirshfeld dipole vector :     -0.00775669      -0.02650297       0.01913834
  |   Hirshfeld dipole moment :      0.03359836
  |   Hirshfeld second moments:     -0.07441039      -0.02515364      -0.00388275
  |                                 -0.02515364      -0.09244993       0.00020384
  |                                 -0.00388275       0.00020384      -0.04192459
  ----------------------------------------------------------------------
  | Atom     4: H
  |   Hirshfeld charge        :      0.09112097
  |   Free atom volume        :     10.44207651
  |   Hirshfeld volume        :     11.03724578
  |   Hirshfeld dipole vector :     -0.01432814      -0.00861269       0.02443191
  |   Hirshfeld dipole moment :      0.02960392
  |   Hirshfeld second moments:      0.02797685       0.00969893       0.00033628
  |                                  0.00969893       0.02446978       0.00383866
  |                                  0.00033628       0.00383866       0.00413737
  ----------------------------------------------------------------------
  | Atom     5: O
  |   Hirshfeld charge        :     -0.22139363
  |   Free atom volume        :     23.95238533
  |   Hirshfeld volume        :     22.04639393
  |   Hirshfeld dipole vector :     -0.02796143       0.02324007       0.00297358
  |   Hirshfeld dipole moment :      0.03647991
  |   Hirshfeld second moments:      0.02499008       0.05125573      -0.01068782
  |                                  0.05125573       0.03601713       0.02014986
  |                                 -0.01068782       0.02014986       0.05635778
  ----------------------------------------------------------------------
  | Atom     6: H
  |   Hirshfeld charge        :      0.13421840
  |   Free atom volume        :     10.44207651
  |   Hirshfeld volume        :      9.61874254
  |   Hirshfeld dipole vector :      0.01766717       0.06344521       0.05780056
  |   Hirshfeld dipole moment :      0.08762606
  |   Hirshfeld second moments:      0.05086661       0.00927514      -0.00057238
  |                                  0.00927514       0.04682745       0.00570611
  |                                 -0.00057238       0.00570611       0.07008012
  ----------------------------------------------------------------------
  | Atom     7: H
  |   Hirshfeld charge        :      0.13806910
  |   Free atom volume        :     10.44207651
  |   Hirshfeld volume        :      9.51743923
  |   Hirshfeld dipole vector :     -0.07044849      -0.04627757       0.02138923
  |   Hirshfeld dipole moment :      0.08696035
  |   Hirshfeld second moments:      0.04480275       0.01561597      -0.00228575
  |                                  0.01561597       0.06567460       0.01529773
  |                                 -0.00228575       0.01529773       0.06799387
  ----------------------------------------------------------------------
  | Atom     8: O
  |   Hirshfeld charge        :     -0.31147533
  |   Free atom volume        :     23.95238533
  |   Hirshfeld volume        :     23.32460560
  |   Hirshfeld dipole vector :     -0.00726590       0.06850823      -0.00188867
  |   Hirshfeld dipole moment :      0.06891834
  |   Hirshfeld second moments:     -0.02920825      -0.01720665      -0.06433630
  |                                 -0.01720665      -0.01614977      -0.00335196
  |                                 -0.06433630      -0.00335196       0.00400570
  ----------------------------------------------------------------------
  | Atom     9: H
  |   Hirshfeld charge        :      0.13171959
  |   Free atom volume        :     10.44207651
  |   Hirshfeld volume        :      7.28720087
  |   Hirshfeld dipole vector :     -0.06319446       0.08712307       0.06645818
  |   Hirshfeld dipole moment :      0.12649371
  |   Hirshfeld second moments:      0.09211438       0.00062175      -0.02064910
  |                                  0.00062175       0.09167830      -0.00773737
  |                                 -0.02064910      -0.00773737       0.10481020
  ----------------------------------------------------------------------
  | Atom    10: H
  |   Hirshfeld charge        :      0.11274945
  |   Free atom volume        :     10.44207651
  |   Hirshfeld volume        :     10.02696854
  |   Hirshfeld dipole vector :      0.03611455       0.07027635      -0.05365545
  |   Hirshfeld dipole moment :      0.09550881
  |   Hirshfeld second moments:      0.04000754      -0.00283658      -0.00117499
  |                                 -0.00283658       0.06574029      -0.01107108
  |                                 -0.00117499      -0.01107108       0.02704985
  ----------------------------------------------------------------------


------------------------------------------------------------------------------
  Final output of selected total energy values:

  The following output summarizes some interesting total energy values
  at the end of a run (AFTER all relaxation, molecular dynamics, etc.).

  | Total energy of the DFT / Hartree-Fock s.c.f. calculation      :          -6262.571816215 eV
  | Final zero-broadening corrected energy (caution - metals only) :          -6262.574637163 eV
  | For reference only, the value of 1 Hartree used in FHI-aims is :             27.211384500 eV

  Before relying on these values, please be sure to understand exactly which
  total energy value is referred to by a given number. Different objects may
  all carry the same name 'total energy'. Definitions:

  Total energy of the DFT / Hartree-Fock s.c.f. calculation:
  | Note that this energy does not include ANY quantities calculated after the
  | s.c.f. cycle, in particular not ANY RPA, MP2, etc. many-body perturbation terms.

  Final zero-broadening corrected energy:
  | For metallic systems only, a broadening of the occupation numbers at the Fermi
  | level can be extrapolated back to zero broadening by an electron-gas inspired
  | formula. For all systems that are not real metals, this value can be
  | meaningless and should be avoided.

------------------------------------------------------------------------------

------------------------------------------------------------
          Leaving FHI-aims.
          Date     :  20150727, Time     :  123223.012

          Computational steps:
          | Number of self-consistency cycles          :           15

          Detailed time accounting                     :  max(cpu_time)    wall_clock(cpu1)
          | Total time                                 :       15.186 s          15.208 s
          | Preparation time                           :        0.174 s           0.605 s
          | Grid partitioning                          :        0.098 s           0.098 s
          | Preloading free-atom quantities on grid    :        0.013 s           0.013 s
          | Free-atom superposition energy             :        0.034 s           0.034 s
          | Total time for integrations                :        5.525 s           5.523 s
          | Total time for solution of K.-S. equations :        0.346 s           0.354 s
          | Total time for density & force components  :        5.304 s           5.297 s
          | Total time for mixing                      :        0.122 s           0.124 s
          | Total time for Hartree multipole update    :        0.058 s           0.060 s
          | Total time for Hartree multipole sum       :        2.889 s           2.889 s
          | Total time for total energy evaluation     :        0.009 s           0.020 s
          | Total time for scaled ZORA corrections     :        0.000 s           0.000 s
          | Total time for TS (2009) vdW correction    :        0.027 s           0.030 s

          Have a nice day.
------------------------------------------------------------
