  MPI-parallelism will be employed.
------------------------------------------------------------
          Invoking FHI-aims ...
          Version 081213
          Compiled on 2013/08/29 at 17:41:06 on host generoso.

          When using FHI-aims, please cite the following reference:

          Volker Blum, Ralf Gehrke, Felix Hanke, Paula Havu,
          Ville Havu, Xinguo Ren, Karsten Reuter, and Matthias Scheffler,
          'Ab Initio Molecular Simulations with Numeric Atom-Centered Orbitals: FHI-aims',
          Computer Physics Communications 180, 2175-2196 (2009)

          For any questions about FHI-aims, please visit the aimsclub website
          with its forums and wiki. Contributions to both the forums and the
          wiki are warmly encouraged - they are for you, and everyone is welcome there.

------------------------------------------------------------

  Date     :  20150727, Time     :  121519.409
  Time zero on CPU 1             :   0.509910000000000E-01  s.
  Internal wall clock time zero  :           207231319.409  s.

  Using        8 parallel tasks.
  Task        0 on host gen59 reporting.
  Task        1 on host gen59 reporting.
  Task        2 on host gen59 reporting.
  Task        3 on host gen59 reporting.
  Task        4 on host gen59 reporting.
  Task        5 on host gen59 reporting.
  Task        6 on host gen59 reporting.
  Task        7 on host gen59 reporting.

  Performing system and environment tests:
  | Environment variable OMP_NUM_THREADS correctly set to 1.
  | Checking for scalapack...
  | No scalapack compiled in.

  Obtaining array dimensions for all initial allocations:
  
  -----------------------------------------------------------------------
  Parsing control.in (first pass over file, find array dimensions only).
  The contents of control.in will be repeated verbatim below
  unless switched off by setting 'verbatim_writeout .false.' .
  in the first line of control.in .
  -----------------------------------------------------------------------
  
  #########################################################################################
  #
  #  Volker Blum, FHI 2008 : Test run input file control.in
  #
  #########################################################################################
  #
  #  Physical model
  #
    xc                 rpbe
    spin               none
    relativistic       atomic_zora scalar
    charge             0.
   vdw_correction_hirshfeld
  #
  #  SCF convergence
  #
    occupation_type    gaussian 0.01
    mixer              pulay
      n_max_pulay        10
      charge_mix_param   0.1
    sc_accuracy_rho    5E-5
    sc_accuracy_eev    5E-3
    sc_accuracy_etot   5E-6
    sc_iter_limit      3000
  #
  #  Eigenvalue solver
  #
    KS_method          lapack
      empty_states       8
      basis_threshold    0.e-5
  #
  #  Efficiency
  #
  #   all previous settings are now default, except stratmann still
  #   undecided. Continue to handle stratmann with care, if at all.
  #
  #  partition_type stratmann
    partition_type rho_r2
  #  hartree_partition_type stratmann
  #
  #  Oprions for large clusters (100's of atoms: memory saving / better scaling)
  #
  # for periodic systems:
  #
    density_update_method orbital
    packed_matrix_format none
  #  k_grid 6 6 6
  #  output k_eigenvalue 1
  #  distributed_spline_storage .true.
  #
  #  Relaxation
  #
  #  relax_geometry   bfgs 5.e-3
    sc_accuracy_forces 5.E-4
    final_forces_cleaned .true.
  #
  #  Output options
  #
  #  output mulliken
    output Hirshfeld
  #  output dipole
  
  #harmonic_length_scale 0.001
  
  ################################################################################
  #
  #  FHI-aims code project
  #  VB, Fritz-Haber Institut, 2007
  #
  #  Suggested "safe" defaults for H atom (to be pasted into control.in file)
  #  Basis constructed for a non-relativistic H2 molecule using the
  #  PW-LDA functional.
  #
  ################################################################################
    species        H
  #     global species definitions
      nucleus             1
      cut_pot             4.0  2.0  1.0
      cut_free_atom       finite 8.0
      logarithmic         0.00010000 100.00  1.0123
      basis_dep_cutoff    1d-4  # 1d-4 is safe default - please check 5d-4 if you wish!
      radial_base         24 7.0
      radial_multiplier   2
      angular_grids       specified
        division   0.2783  110
        division   0.3822  194
        division   0.5626  302
  #      division   0.5922  434
  #      division   0.6227  590
  #      division   0.7206  770
        outer_grid  302
      l_hartree           4
  ################################################################################
  #
  #  Definition of "minimal" basis
  #
  ################################################################################
  #     valence basis states
      valence      1  s   1.
  #     ion occupancy
      ion_occ      1  s   0.5
  ################################################################################
  #
  #  Suggested additional basis functions. For production calculations,
  #  uncomment them one after another (the most important basis functions are
  #  listed first).
  #
  ################################################################################
  #  "First tier" - improvements: -1014.90 meV to -62.69 meV
       hydro 2 s 2.1
       hydro 2 p 3.5
  #  "Second tier" - improvements: -12.89 meV to -1.83 meV
       hydro 1 s 0.85
       hydro 2 p 3.7
       hydro 2 s 1.2
       hydro 3 d 7
  #  "Third tier" - improvements: -0.25 meV to -0.12 meV
  #     hydro 4 f 11.2
  #     hydro 3 p 4.8
  #     hydro 4 d 9
  #     hydro 3 s 3.2
  
  ################################################################################
  #
  #  FHI-aims code project
  #  VB, Fritz-Haber Institut, 2007
  #
  #  Suggested "safe" defaults for O atom (to be pasted into control.in file)
  #  All values have been tested for a non-relativistic, non-spinpolarized O2
  #  molecule using the PW-LDA functional. Validity for PBE is expected.
  #
  #  Constructed for dimers: 1.0 A, 1.208 A, 1.5 A, 2.0 A, 3.0 A
  #
  ################################################################################
    species        O
  #     global species definitions
      nucleus             8
      mass                15.9994
      l_hartree           4
      cut_pot             4.0  2.0  1.0
      cut_free_atom       finite 8.0
      basis_dep_cutoff    1d-4  # 1d-4 is safe default - please check 5d-4 if you wish!
      logarithmic         0.00010000 100.00  1.0123
      radial_base         36 7.0
      radial_multiplier   2
       angular_grids specified
        division   0.4087  110
        division   0.5181  194
        division   0.6184  302
  #      division   0.7315  434
  #      division   0.7934  590
  #      division   0.9656  770
  #      division   1.4041  974
  #      outer_grid 974
        outer_grid 302
  ################################################################################
  #
  #  Definition of "minimal" basis
  #
  ################################################################################
  #     valence basis states
      valence      2  s   2.
      valence      2  p   4.
  #     ion occupancy
      ion_occ      2  s   1.
      ion_occ      2  p   3.
  ################################################################################
  #
  #  Suggested additional basis functions. For production calculations,
  #  uncomment them one after another (the most important basis functions are
  #  listed first).
  #
  ################################################################################
  #  "First tier" - improvements: -699.05 meV to -159.38 meV
       hydro 2 p 1.8
       hydro 3 d 7.6
       hydro 3 s 6.4
  #  "Second tier" - improvements: -49.91 meV to -5.39 meV
       hydro 4 f 11.6
       hydro 3 p 6.2
       hydro 3 d 5.6
       hydro 5 g 17.6
       hydro 1 s 0.75
  #  "Third tier" - improvements: -2.83 meV to -0.50 meV
  #     ionic 2 p auto
  #     hydro 4 f 10.8
  #     hydro 4 d 4.7
  #     hydro 2 s 6.8
  #  "Fourth tier" - improvements: -0.40 meV to -0.12 meV
  #     hydro 3 p 5
  #     hydro 3 s 3.3
  #     hydro 5 g 15.6
  #     hydro 4 f 17.6
  #     hydro 4 d 14
  # Further basis functions - -0.08 meV and below
  #     hydro 3 s 2.1
  #     hydro 4 d 11.6
  #     hydro 3 p 16
  #     hydro 2 s 17.2
  
  
  -----------------------------------------------------------------------
  Completed first pass over input file control.in .
  -----------------------------------------------------------------------
  
  
  -----------------------------------------------------------------------
  Parsing geometry.in (first pass over file, find array dimensions only).
  The contents of geometry.in will be repeated verbatim below
  unless switched off by setting 'verbatim_writeout .false.' .
  in the first line of geometry.in .
  -----------------------------------------------------------------------
  
  atom      -4.053030000      0.065001000     -1.525160000  O
  atom      -4.566710000      0.974813000     -1.912820000  H
  atom      -3.067820000      0.330172000     -1.477310000  H
  atom      -4.370360000     -0.049164000     -0.572274000  H
  atom      -4.581760000     -0.256435000      0.939478000  O
  atom      -4.349860000      0.471090000      1.504340000  H
  atom      -5.393870000     -0.726611000      1.228070000  H
  atom      -1.645860000      0.870179000     -1.502250000  O
  atom      -1.568890000      1.501730000     -0.721051000  H
  atom      -0.824432000      0.282220000     -1.377720000  H
  atom      -3.818880000      2.024990000      2.187990000  O
  atom      -3.690880000      1.961360000      3.202150000  H
  atom      -4.546490000      2.751300000      2.045370000  H
  atom      -1.975360000      2.858040000      0.453140000  O
  atom      -1.223550000      3.375850000      0.786238000  H
  atom      -2.537520000      2.567960000      1.156120000  H
  
  -----------------------------------------------------------------------
  Completed first pass over input file geometry.in .
  -----------------------------------------------------------------------
  
 
  Basic array size parameters: 
  | Number of species                 :        2
  | Number of atoms                   :       16
  | Max. basis fn. angular momentum   :        4
  | Max. atomic/ionic basis occupied n:        2
  | Max. number of basis fn. types    :        2
  | Max. radial fns per species/type  :        8
  | Max. logarithmic grid size        :     1301
  | Max. radial integration grid size :       73
  | Max. angular integration grid size:      302
  | Max. angular grid division number :        8
  | Radial grid for Hartree potential :     1301
  | Number of spin channels           :        1

------------------------------------------------------------
          Reading file control.in.
------------------------------------------------------------
  XC: Using RPBE gradient-corrected functionals.
  Spin treatment: No spin polarisation.
  Scalar relativistic treatment of kinetic energy: on-site free-atom approximation to ZORA.
  Charge =   0.000000E+00: Neutral system requested explicitly.
  Using non-empirical van der Waals correction (Hirshfeld partitioning):
  Occupation type: Gaussian broadening, width =   0.100000E-01 eV.
  Using pulay charge density mixing.
  Pulay mixing - number of memorized iterations:   10
  Charge density mixing - mixing parameter:     0.1000
  Convergence accuracy of self-consistent charge density: 0.5000E-04
  Convergence accuracy of sum of eigenvalues: 0.5000E-02
  Convergence accuracy of total energy: 0.5000E-05
  Maximum number of s.-c. iterations  :  3000
  Kohn-Sham eigenvalues and eigenfunctions calculated by lapack diagonalisation (D&C).
  Number of empty states per atom:        8
  Threshold for basis singularities: 0.0000E+00
  Partition function in integrals calculations: rho / r^2
 Using packed matrix format           0
  Convergence accuracy of forces: 0.5000E-03
  Cleaning forces before final output.
  Hirshfeld charge analysis will be performed.
 
  Reading configuration options for species H                   .
  | Found nuclear charge :   1.0000
  | Found cutoff potl. onset [A], width [A], scale factor :    4.00000    2.00000    1.00000
  | Found cutoff specification for free atom: Cutoff potential begins at    8.00000 A.
  | Found logarithmic grid data [bohr] : 0.1000E-03 0.1000E+03 0.1012E+01
  | Threshold for basis-dependent cutoff potential is   0.100000E-03
  | Found data for basic radial integration grid :    24 points, outermost radius =    7.000 A
  | Found multiplier for basic radial grid :   2
  | Found angular grid specification: user-specified.
  | Specified grid contains     4 separate shells.
  | Check grid settings after all constraints further below.
  | Found l_max for Hartree potential  :   4
  | Found free-atom valence shell :  1 s   1.000
  | No ionic wave fns used. Skipping ion_occ.
  | Found hydrogenic basis function :  2 s   2.100
  | Found hydrogenic basis function :  2 p   3.500
  | Found hydrogenic basis function :  1 s   0.850
  | Found hydrogenic basis function :  2 p   3.700
  | Found hydrogenic basis function :  2 s   1.200
  | Found hydrogenic basis function :  3 d   7.000
  Species H                   : Missing cutoff potential type.
  Defaulting to exp(1/x)/(1-x)^2 type cutoff potential.
  Species H : On-site basis accuracy parameter (for Gram-Schmidt orthonormalisation) not specified.
  Using default value basis_acc =  0.1000000E-03.
  Species H                   : Using default innermost maximum threshold i_radial=  2 for radial functions.
  Species H                   : Basic radial grid will be enhanced according to radial_multiplier =   2, to contain    49 grid points.
 
  Reading configuration options for species O                   .
  | Found nuclear charge :   8.0000
  | Found atomic mass :    15.9994000000000      amu
  | Found l_max for Hartree potential  :   4
  | Found cutoff potl. onset [A], width [A], scale factor :    4.00000    2.00000    1.00000
  | Found cutoff specification for free atom: Cutoff potential begins at    8.00000 A.
  | Threshold for basis-dependent cutoff potential is   0.100000E-03
  | Found logarithmic grid data [bohr] : 0.1000E-03 0.1000E+03 0.1012E+01
  | Found data for basic radial integration grid :    36 points, outermost radius =    7.000 A
  | Found multiplier for basic radial grid :   2
  | Found angular grid specification: user-specified.
  | Specified grid contains     4 separate shells.
  | Check grid settings after all constraints further below.
  | Found free-atom valence shell :  2 s   2.000
  | Found free-atom valence shell :  2 p   4.000
  | No ionic wave fns used. Skipping ion_occ.
  | No ionic wave fns used. Skipping ion_occ.
  | Found hydrogenic basis function :  2 p   1.800
  | Found hydrogenic basis function :  3 d   7.600
  | Found hydrogenic basis function :  3 s   6.400
  | Found hydrogenic basis function :  4 f  11.600
  | Found hydrogenic basis function :  3 p   6.200
  | Found hydrogenic basis function :  3 d   5.600
  | Found hydrogenic basis function :  5 g  17.600
  | Found hydrogenic basis function :  1 s   0.750
  Species O                   : Missing cutoff potential type.
  Defaulting to exp(1/x)/(1-x)^2 type cutoff potential.
  Species O : On-site basis accuracy parameter (for Gram-Schmidt orthonormalisation) not specified.
  Using default value basis_acc =  0.1000000E-03.
  Species O                   : Using default innermost maximum threshold i_radial=  2 for radial functions.
  Species O                   : Basic radial grid will be enhanced according to radial_multiplier =   2, to contain    73 grid points.
 
  Finished reading input file 'control.in'. Consistency checks are next.
 
  Target number of points in a grid batch is not set. Defaulting to  100
  Method for grid partitioning is not set. Defaulting to parallel hash+maxmin partitioning.
  Batch size limit is not set. Defaulting to    200
  By default, will store active basis functions for each batch.
  If in need of memory, prune_basis_once .false. can be used to disable this option.
  communication_type for Hartree potential was not specified.
  Defaulting to calc_hartree .
  Pulay mixer: Number of initial linear mixing iterations not set.
  Defaulting to    0 iterations.
  Work space size for distributed Hartree potential not set.
  Defaulting to   0.200000E+03 MB.
  Algorithm-dependent basis array size parameters:
  | n_max_pulay                         :       10
  Geometry relaxation not requested: no relaxation will be performed.
  Handling of forces: Unphysical translation and rotation will be removed from forces.
  No accuracy limit for integral partition fn. given. Defaulting to 0.1000E-14.
  No threshold value for u(r) in integrations given. Defaulting to 0.1000E-05.
  No accuracy for occupation numbers given. Defaulting to 0.1000E-07.
  No threshold value for occupation numbers given. Defaulting to 0.0000E+00.
  No accuracy for fermi level given. Defaulting to 0.1000E-19.
  Maximum # of iterations to find E_F not set. Defaulting to  200.
  Will not use alltoall communication since running on < 1024 CPUs.
  Partitioning for Hartree potential was not defined. Using partition_type for integrals.
  | Reporting present value of keyword multip_moments_threshold  :       0.10000000E-09
  | This value may affect high angular momentum components of the Hartree potential in periodic systems.
  No q(lm)/r^(l+1) cutoff set for long-range Hartree potential.
  | Using default value of  0.100000E-09 .
  | Verify using the multipole_threshold keyword.
  Defaulting to new monopole extrapolation.
  Density update method: Loop over occupied states selected for charge density update.
------------------------------------------------------------


------------------------------------------------------------
          Reading geometry description geometry.in.
------------------------------------------------------------
  Input structure read successfully.
  The structure contains       16 atoms,  and a total of         51.000 electrons.

  Input geometry:
  | No unit cell requested.
  | Atomic structure:
  |       Atom                x [A]            y [A]            z [A]
  |    1: Species O             -4.053030         0.065001        -1.525160
  |    2: Species H             -4.566710         0.974813        -1.912820
  |    3: Species H             -3.067820         0.330172        -1.477310
  |    4: Species H             -4.370360        -0.049164        -0.572274
  |    5: Species O             -4.581760        -0.256435         0.939478
  |    6: Species H             -4.349860         0.471090         1.504340
  |    7: Species H             -5.393870        -0.726611         1.228070
  |    8: Species O             -1.645860         0.870179        -1.502250
  |    9: Species H             -1.568890         1.501730        -0.721051
  |   10: Species H             -0.824432         0.282220        -1.377720
  |   11: Species O             -3.818880         2.024990         2.187990
  |   12: Species H             -3.690880         1.961360         3.202150
  |   13: Species H             -4.546490         2.751300         2.045370
  |   14: Species O             -1.975360         2.858040         0.453140
  |   15: Species H             -1.223550         3.375850         0.786238
  |   16: Species H             -2.537520         2.567960         1.156120
  |

  | The smallest distance between any two atoms is         0.94570141 AA.
  |
  | The first atom of this pair is atom number                     14 .
  | The second atom of this pair is atom number                    16 .

  Structure-dependent array size parameters: 
  | Maximum number of distinct radial functions  :       18
  | Maximum number of basis functions            :      360
  | Number of Kohn-Sham states (occupied + empty):       90
------------------------------------------------------------

------------------------------------------------------------
          Preparing all fixed parts of the calculation.
------------------------------------------------------------
  Determining machine precision:
    2.225073858507201E-308
  Setting up grids for atomic and cluster calculations.

  Creating wave function, potential, and density for free atoms.

  Species: H

  List of occupied orbitals and eigenvalues:
    n    l              occ      energy [Ha]    energy [eV]
    1    0           1.0000        -0.241408        -6.5691


  Species: O

  List of occupied orbitals and eigenvalues:
    n    l              occ      energy [Ha]    energy [eV]
    1    0           2.0000       -18.944147      -515.4965
    2    0           2.0000        -0.883529       -24.0421
    2    1           4.0000        -0.330176        -8.9845

  Creating fixed part of basis set: Ionic, confined, hydrogenic.
 
  H                    hydrogenic:
 
  List of hydrogenic basis orbitals: 
    n    l      effective z      eigenvalue [eV]  inner max. [A]     outer max. [A]     outer radius [A]   
    2    0         2.100000       -14.9965           0.193241           1.317192           5.372934
    2    1         3.500000       -41.6672           0.602363           0.602363           4.056010
    1    0         0.850000        -9.8292           0.624864           0.624864           5.372934
    2    1         3.700000       -46.5653           0.573616           0.573616           3.909951
    2    0         1.200000        -4.5995           0.334977           2.228160           5.505921
    3    2         7.000000       -74.0753           0.680692           0.680692           3.769152
 
 
  O                    hydrogenic:
 
  List of hydrogenic basis orbitals: 
    n    l      effective z      eigenvalue [eV]  inner max. [A]     outer max. [A]     outer radius [A]   
    2    1         1.800000       -11.0118           1.178546           1.178546           5.432516
    3    2         7.600000       -87.3182           0.624117           0.624117           3.541422
    3    0         6.400000       -61.9209           0.061166           1.081887           4.306510
    4    3        11.600000      -114.4238           0.731621           0.731621           3.584982
    3    1         6.200000       -58.1113           0.255677           1.030255           4.306510
    3    2         5.600000       -47.4081           0.847222           0.847222           4.413102
    5    4        17.600000      -168.5799           0.749730           0.749730           3.372413
    1    0         0.750000        -7.6499           0.705275           0.705275           5.366508
 

  Adding cutoff potential to free-atom effective potential.
  Creating atomic-like basis functions for current effective potential.

  Species H                   :

  List of atomic basis orbitals and eigenvalues:
    n    l      energy [Ha]    energy [eV]    outer radius [A]
    1    0        -0.241374        -6.5681       5.372934


  Species O                   :

  List of atomic basis orbitals and eigenvalues:
    n    l      energy [Ha]    energy [eV]    outer radius [A]
    1    0       -18.944147      -515.4965       1.415745
    2    0        -0.883529       -24.0421       5.048305
    2    1        -0.330173        -8.9845       5.301302

  Assembling full basis from fixed parts.
  | Species H :   atomic orbital   1 s accepted.
  | Species H :    hydro orbital   2 s accepted.
  | Species H :    hydro orbital   1 s accepted.
  | Species H :    hydro orbital   2 s accepted.
  | Species H :    hydro orbital   2 p accepted.
  | Species H :    hydro orbital   2 p accepted.
  | Species H :    hydro orbital   3 d accepted.
  | Species O :   atomic orbital   1 s accepted.
  | Species O :    hydro orbital   3 s accepted.
  | Species O :   atomic orbital   2 s accepted.
  | Species O :    hydro orbital   1 s accepted.
  | Species O :    hydro orbital   3 p accepted.
  | Species O :   atomic orbital   2 p accepted.
  | Species O :    hydro orbital   2 p accepted.
  | Species O :    hydro orbital   3 d accepted.
  | Species O :    hydro orbital   3 d accepted.
  | Species O :    hydro orbital   4 f accepted.
  | Species O :    hydro orbital   5 g accepted.
 
  Basis size parameters after reduction:
  | Total number of radial functions:       18
  | Total number of basis functions :      360
 
  Testing on-site integration grid accuracy.
  |  Species  Function  <phi|h_atom|phi> (log., in eV)  <phi|h_atom|phi> (rad., in eV)
           1        1                 -6.5683835025                 -6.5684759159
           1        2                 13.3711789951                 13.3708738703
           1        3                 23.6590910787                 23.6532055418
           1        4                 16.2963827186                 16.1870710655 ***
           1        5                 28.7627214838                 28.7627215090
           1        6                 59.5965249172                 59.5965950857
           1        7                 60.2220506392                 60.2220503827
           2        8               -515.4964576505               -515.4964530710
           2        9                 15.3030791347                 15.3030722972
           2       10                -21.7296094581                -21.7296135470
           2       11                 14.2969371730                 14.2969701621
           2       12                 21.0679693190                 21.0679697493
           2       13                 -2.3833606469                 -2.3833613176
           2       14                 13.7067136422                 13.7066766629
           2       15                 45.8013116808                 45.8013116965
           2       16                 52.2309815402                 52.2309831494
           2       17                 85.4120732416                 85.4120732763
           2       18                142.1019167745                142.1019167817
 * Note: Onsite integrals marked "***" above are less accurate than
 * onsite_accuracy_threshold =    0.03000 eV. Usually, this is harmless.
 * When in doubt, tighten the "radial" and/or "radial_multiplier" flags to check.

  Preparing densities etc. for the partition functions (integrals / Hartree potential).

  Preparations completed.
  max(cpu_time)          :      0.171 s.
  Wall clock time (cpu1) :      0.467 s.
------------------------------------------------------------

------------------------------------------------------------
          Begin self-consistency loop: Initialization.

          Date     :  20150727, Time     :  121519.923
------------------------------------------------------------

  Initializing index lists of integration centers etc. from given atomic structure:
  | Number of centers in hartree potential         :        16
  | Number of centers in hartree multipole         :        16
  | Number of centers in electron density summation:        16
  | Number of centers in basis integrals           :        16
  | Number of centers in integrals                 :        16
  Partitioning the integration grid into batches with parallel hashing+maxmin method.
  | Number of batches:     2295
  | Maximal batch size:     185
  | Minimal batch size:      52
  | Average batch size:      90.764
  | Standard deviation of batch sizes:      29.120

  Integration load balanced across     8 MPI tasks.
  Work distribution over tasks is as follows:
  Task     0 has      25996 integration points.
  Task     1 has      25980 integration points.
  Task     2 has      26161 integration points.
  Task     3 has      25978 integration points.
  Task     4 has      26054 integration points.
  Task     5 has      26058 integration points.
  Task     6 has      26010 integration points.
  Task     7 has      26067 integration points.
  Initializing partition tables, free-atom densities, potentials, etc. across the integration grid (initialize_grid_storage).
  | Net number of integration points:   208304
  | of which are non-zero points    :   207767
  Obtaining max. number of non-zero basis functions in each batch (get_n_compute_maxes).
  | Maximal number of non-zero basis functions:      357 in task     0
  | Maximal number of non-zero basis functions:      357 in task     1
  | Maximal number of non-zero basis functions:      357 in task     2
  | Maximal number of non-zero basis functions:      357 in task     3
  | Maximal number of non-zero basis functions:      357 in task     4
  | Maximal number of non-zero basis functions:      357 in task     5
  | Maximal number of non-zero basis functions:      357 in task     6
  | Maximal number of non-zero basis functions:      357 in task     7
  Integrating Hamiltonian matrix: batch-based integration.
  Time summed over all CPUs for integration: real work        8.948 s, elapsed        9.174 s
  Integrating overlap matrix.
  Time summed over all CPUs for integration: real work        4.821 s, elapsed        4.968 s

  Updating Kohn-Sham eigenvalues, eigenvectors, occupation numbers, and Fermi level.
  Solving generalized eigenproblem
  Updating Kohn-Sham eigenvalues and eigenfunctions.
  Transforming overlap matrix and checking for singularities.
  Overlap matrix is nonsingular:
  | Lowest eigenvalue:  0.181440E-03
  Solving real generalised eigenvalue problem by standard LAPACK (fast)
  Determining occupation numbers for Kohn-Sham eigenstates.
  | Chemical potential (Fermi level) in eV                 : -.27901123E+01
  | Error in electron count due to remaining E_F inaccuracy: -.49565330E-09
  | Maximum occupation number of highest empty state:  0.00E+00

  Writing Kohn-Sham eigenvalues.

  State    Occupation    Eigenvalue [Ha]    Eigenvalue [eV]
      1       2.00000         -19.065173         -518.78975
      2       2.00000         -19.059291         -518.62971
      3       2.00000         -19.057384         -518.57782
      4       2.00000         -19.042578         -518.17490
      5       2.00000         -19.035968         -517.99504
      6       2.00000          -1.127522          -30.68143
      7       2.00000          -1.109706          -30.19664
      8       2.00000          -1.105903          -30.09316
      9       2.00000          -1.081574          -29.43112
     10       2.00000          -1.069143          -29.09285
     11       2.00000          -0.656004          -17.85078
     12       2.00000          -0.653839          -17.79187
     13       2.00000          -0.647727          -17.62556
     14       2.00000          -0.611149          -16.63022
     15       2.00000          -0.606504          -16.50380
     16       2.00000          -0.597489          -16.25850
     17       2.00000          -0.527903          -14.36497
     18       2.00000          -0.516999          -14.06825
     19       2.00000          -0.502818          -13.68237
     20       2.00000          -0.496682          -13.51542
     21       2.00000          -0.482878          -13.13978
     22       2.00000          -0.446776          -12.15740
     23       2.00000          -0.443920          -12.07969
     24       2.00000          -0.435789          -11.85841
     25       2.00000          -0.432449          -11.76754
     26       1.00000          -0.102535           -2.79011
     27       0.00000          -0.079637           -2.16704
     28       0.00000          -0.064507           -1.75533
     29       0.00000          -0.047906           -1.30360
     30       0.00000          -0.035570           -0.96792
     31       0.00000          -0.017528           -0.47695
     32       0.00000           0.025060            0.68191
     33       0.00000           0.033544            0.91277
     34       0.00000           0.046245            1.25840
     35       0.00000           0.054363            1.47930
     36       0.00000           0.059109            1.60844
     37       0.00000           0.065025            1.76942
     38       0.00000           0.074095            2.01622
     39       0.00000           0.091604            2.49267
     40       0.00000           0.096035            2.61325
     41       0.00000           0.099618            2.71075
     42       0.00000           0.102193            2.78082
     43       0.00000           0.111822            3.04282
     44       0.00000           0.124479            3.38726
     45       0.00000           0.130895            3.56185
     46       0.00000           0.138334            3.76425
     47       0.00000           0.149868            4.07811
     48       0.00000           0.151909            4.13366
     49       0.00000           0.158517            4.31347
     50       0.00000           0.164016            4.46311
     51       0.00000           0.191052            5.19878
     52       0.00000           0.205664            5.59640
     53       0.00000           0.215987            5.87731
     54       0.00000           0.216163            5.88209
     55       0.00000           0.233534            6.35478
     56       0.00000           0.250185            6.80788
     57       0.00000           0.263920            7.18163
     58       0.00000           0.275655            7.50097
     59       0.00000           0.295222            8.03341
     60       0.00000           0.306305            8.33497
     61       0.00000           0.316172            8.60348
     62       0.00000           0.336963            9.16923
     63       0.00000           0.341836            9.30183
     64       0.00000           0.356051            9.68865
     65       0.00000           0.377750           10.27911
     66       0.00000           0.384538           10.46381
     67       0.00000           0.393911           10.71887
     68       0.00000           0.398332           10.83918
     69       0.00000           0.411597           11.20013
     70       0.00000           0.419326           11.41045
     71       0.00000           0.435771           11.85794
     72       0.00000           0.447089           12.16590
     73       0.00000           0.455947           12.40694
     74       0.00000           0.468712           12.75431
     75       0.00000           0.512707           13.95146
     76       0.00000           0.521025           14.17781
     77       0.00000           0.530407           14.43312
     78       0.00000           0.572438           15.57684
     79       0.00000           0.576464           15.68638
     80       0.00000           0.594406           16.17460
     81       0.00000           0.612937           16.67886
     82       0.00000           0.629691           17.13477
     83       0.00000           0.662584           18.02983
     84       0.00000           0.697481           18.97943
     85       0.00000           0.721059           19.62101
     86       0.00000           0.738301           20.09020
     87       0.00000           0.758543           20.64101
     88       0.00000           0.761839           20.73069
     89       0.00000           0.775403           21.09978
     90       0.00000           0.792407           21.56248

  Highest occupied state (VBM) at    -11.76754481 eV
  | Occupation number:      2.00000000

  Lowest unoccupied state (CBM) at    -2.79011225 eV
  | Occupation number:      1.00000000

  Overall HOMO-LUMO gap:      8.97743256 eV.
  Calculating total energy contributions from superposition of free atom densities.

  Total energy components:
  | Sum of eigenvalues            :        -217.72887315 Ha       -5924.70408412 eV
  | XC energy correction          :         -45.96974302 Ha       -1250.90035281 eV
  | XC potential correction       :          58.76044474 Ha        1598.95305532 eV
  | Free-atom electrostatic energy:        -178.58924559 Ha       -4859.66062920 eV
  | Hartree energy correction     :           0.00000000 Ha           0.00000000 eV
  | van der Waals energy corr.    :           0.00000000 Ha           0.00000000 eV
  | Entropy correction            :          -0.00010367 Ha          -0.00282095 eV
  | ---------------------------
  | Total energy                  :        -383.52741702 Ha      -10436.31201080 eV
  | Total energy, T -> 0          :        -383.52752069 Ha      -10436.31483175 eV  <-- do not rely on this value for anything but (periodic) metals
  | Electronic free energy        :        -383.52762436 Ha      -10436.31765270 eV

  Derived energy quantities:
  | Kinetic energy                :         379.93662078 Ha       10338.60147372 eV
  | Electrostatic energy          :        -717.49429478 Ha      -19524.01313172 eV
  | Energy correction for multipole
  | error in Hartree potential    :           0.00000000 Ha           0.00000000 eV
  | Sum of eigenvalues per atom                           :        -370.29400526 eV
  | Total energy (T->0) per atom                          :        -652.26967698 eV  <-- do not rely on this value for anything but (periodic) metals
  | Electronic free energy per atom                       :        -652.26985329 eV
  Initialize hartree_potential_storage
  Max. number of atoms included in rho_multipole:           16

  End scf initialization - timings             :  max(cpu_time)    wall_clock(cpu1)
  | Time for scf. initialization               :        2.384 s           2.383 s
  | Boundary condition initialization          :        0.000 s           0.000 s
  | Integration                                :        1.772 s           1.771 s
  | Solution of K.-S. eqns.                    :        0.212 s           0.212 s
  | Grid partitioning                          :        0.155 s           0.155 s
  | Preloading free-atom quantities on grid    :        0.013 s           0.013 s
  | Free-atom superposition energy             :        0.074 s           0.074 s
  | Total energy evaluation                    :        0.000 s           0.001 s
------------------------------------------------------------

------------------------------------------------------------
          Begin self-consistency iteration #    1

  Date     :  20150727, Time     :  121522.307
------------------------------------------------------------
  Evaluating new KS density.
  Integration grid: deviation in total charge (<rho> - N_e) =  -4.956249E-10
  Pulay mixing of updated and previous charge densities.

  Evaluating partitioned Hartree potential by multipole expansion.
  | Analytical far-field extrapolation by fixed multipoles:
  | Hartree multipole sum: apparent total charge =  -0.114919E-05
  Summing up the Hartree potential.
  Time summed over all CPUs for potential: real work        2.899 s, elapsed        2.916 s
  | RMS charge density error from multipole expansion :   0.166245E-02

  Integrating Hamiltonian matrix: batch-based integration.
  Time summed over all CPUs for integration: real work        8.938 s, elapsed        9.171 s

  Updating Kohn-Sham eigenvalues, eigenvectors, occupation numbers, and Fermi level.
  Solving generalized eigenproblem
  Updating Kohn-Sham eigenvalues and eigenfunctions.
  Solving real generalised eigenvalue problem by standard LAPACK (fast)
  Determining occupation numbers for Kohn-Sham eigenstates.
  | Chemical potential (Fermi level) in eV                 : -.25598055E+01
  | Error in electron count due to remaining E_F inaccuracy: -.99429016E-08
  | Maximum occupation number of highest empty state:  0.00E+00

  Writing Kohn-Sham eigenvalues.

  State    Occupation    Eigenvalue [Ha]    Eigenvalue [eV]
      1       2.00000         -19.007054         -517.20824
      2       2.00000         -18.983736         -516.57374
      3       2.00000         -18.975418         -516.34738
      4       2.00000         -18.971818         -516.24943
      5       2.00000         -18.970824         -516.22239
      6       2.00000          -1.097252          -29.85774
      7       2.00000          -1.069793          -29.11055
      8       2.00000          -1.068133          -29.06538
      9       2.00000          -1.045625          -28.45290
     10       2.00000          -1.036756          -28.21156
     11       2.00000          -0.624209          -16.98560
     12       2.00000          -0.619932          -16.86922
     13       2.00000          -0.617857          -16.81276
     14       2.00000          -0.585221          -15.92467
     15       2.00000          -0.576087          -15.67612
     16       2.00000          -0.571028          -15.53845
     17       2.00000          -0.494583          -13.45828
     18       2.00000          -0.481719          -13.10823
     19       2.00000          -0.467067          -12.70953
     20       2.00000          -0.461049          -12.54579
     21       2.00000          -0.449609          -12.23449
     22       2.00000          -0.408635          -11.11952
     23       2.00000          -0.402439          -10.95093
     24       2.00000          -0.398208          -10.83580
     25       2.00000          -0.397152          -10.80705
     26       1.00000          -0.094071           -2.55981
     27       0.00000          -0.072093           -1.96176
     28       0.00000          -0.055882           -1.52064
     29       0.00000          -0.040466           -1.10114
     30       0.00000          -0.027537           -0.74931
     31       0.00000          -0.011444           -0.31140
     32       0.00000           0.035501            0.96603
     33       0.00000           0.040588            1.10444
     34       0.00000           0.055647            1.51424
     35       0.00000           0.060006            1.63286
     36       0.00000           0.065232            1.77506
     37       0.00000           0.074530            2.02807
     38       0.00000           0.078822            2.14486
     39       0.00000           0.099439            2.70587
     40       0.00000           0.104352            2.83955
     41       0.00000           0.107250            2.91843
     42       0.00000           0.110507            3.00704
     43       0.00000           0.123232            3.35331
     44       0.00000           0.133976            3.64566
     45       0.00000           0.140915            3.83449
     46       0.00000           0.155884            4.24181
     47       0.00000           0.160421            4.36528
     48       0.00000           0.166485            4.53029
     49       0.00000           0.171990            4.68008
     50       0.00000           0.176455            4.80160
     51       0.00000           0.200029            5.44307
     52       0.00000           0.213461            5.80858
     53       0.00000           0.224309            6.10375
     54       0.00000           0.226130            6.15332
     55       0.00000           0.242877            6.60903
     56       0.00000           0.258294            7.02853
     57       0.00000           0.271582            7.39013
     58       0.00000           0.283660            7.71877
     59       0.00000           0.301342            8.19993
     60       0.00000           0.314508            8.55820
     61       0.00000           0.323595            8.80546
     62       0.00000           0.344869            9.38437
     63       0.00000           0.349706            9.51598
     64       0.00000           0.364280            9.91256
     65       0.00000           0.387025           10.53147
     66       0.00000           0.392761           10.68758
     67       0.00000           0.402553           10.95404
     68       0.00000           0.408082           11.10446
     69       0.00000           0.420532           11.44325
     70       0.00000           0.427054           11.62073
     71       0.00000           0.441971           12.02665
     72       0.00000           0.456618           12.42521
     73       0.00000           0.462974           12.59817
     74       0.00000           0.476734           12.97260
     75       0.00000           0.522918           14.22933
     76       0.00000           0.531477           14.46222
     77       0.00000           0.540907           14.71882
     78       0.00000           0.583382           15.87464
     79       0.00000           0.586608           15.96240
     80       0.00000           0.606369           16.50014
     81       0.00000           0.624717           16.99942
     82       0.00000           0.640814           17.43743
     83       0.00000           0.674045           18.34170
     84       0.00000           0.708808           19.28764
     85       0.00000           0.732127           19.92219
     86       0.00000           0.749319           20.39000
     87       0.00000           0.770909           20.97750
     88       0.00000           0.773664           21.05247
     89       0.00000           0.786941           21.41375
     90       0.00000           0.803321           21.85949

  Highest occupied state (VBM) at    -10.80704757 eV
  | Occupation number:      2.00000000

  Lowest unoccupied state (CBM) at    -2.55980549 eV
  | Occupation number:      0.99999999

  Overall HOMO-LUMO gap:      8.24724208 eV.

  Total energy components:
  | Sum of eigenvalues            :        -215.65647477 Ha       -5868.31125475 eV
  | XC energy correction          :         -46.18683567 Ha       -1256.80774428 eV
  | XC potential correction       :          59.04364694 Ha        1606.65937911 eV
  | Free-atom electrostatic energy:        -178.58924559 Ha       -4859.66062920 eV
  | Hartree energy correction     :          -2.02328096 Ha         -55.05627603 eV
  | van der Waals energy corr.    :           0.00000000 Ha           0.00000000 eV
  | Entropy correction            :          -0.00010367 Ha          -0.00282095 eV
  | ---------------------------
  | Total energy                  :        -383.41219004 Ha      -10433.17652516 eV
  | Total energy, T -> 0          :        -383.41229371 Ha      -10433.17934611 eV  <-- do not rely on this value for anything but (periodic) metals
  | Electronic free energy        :        -383.41239738 Ha      -10433.18216705 eV

  Derived energy quantities:
  | Kinetic energy                :         381.25807517 Ha       10374.56007712 eV
  | Electrostatic energy          :        -718.48342954 Ha      -19550.92885799 eV
  | Energy correction for multipole
  | error in Hartree potential    :           0.00044962 Ha           0.01223473 eV
  | Sum of eigenvalues per atom                           :        -366.76945342 eV
  | Total energy (T->0) per atom                          :        -652.07370913 eV  <-- do not rely on this value for anything but (periodic) metals
  | Electronic free energy per atom                       :        -652.07388544 eV

  Self-consistency convergence accuracy:
  | Change of charge density      : 0.6270E+00
  | Change of sum of eigenvalues  : 0.5639E+02 eV
  | Change of total energy        : 0.3135E+01 eV

  End self-consistency iteration #     1       :  max(cpu_time)    wall_clock(cpu1)
  | Time for this iteration                    :        2.306 s           2.304 s
  | Charge density update                      :        0.721 s           0.720 s
  | Density mixing                             :        0.004 s           0.004 s
  | Hartree multipole update                   :        0.005 s           0.005 s
  | Hartree multipole summation                :        0.366 s           0.365 s
  | Integration                                :        1.148 s           1.148 s
  | Solution of K.-S. eqns.                    :        0.057 s           0.058 s
  | Total energy evaluation                    :        0.001 s           0.001 s
------------------------------------------------------------

------------------------------------------------------------
          Begin self-consistency iteration #    2

  Date     :  20150727, Time     :  121524.612
------------------------------------------------------------
  Evaluating new KS density.
  Integration grid: deviation in total charge (<rho> - N_e) =  -9.942895E-09
  Pulay mixing of updated and previous charge densities.

  Evaluating partitioned Hartree potential by multipole expansion.
  | Analytical far-field extrapolation by fixed multipoles:
  | Hartree multipole sum: apparent total charge =  -0.399818E-05
  Summing up the Hartree potential.
  Time summed over all CPUs for potential: real work        2.898 s, elapsed        2.915 s
  | RMS charge density error from multipole expansion :   0.679439E-02

  Integrating Hamiltonian matrix: batch-based integration.
  Time summed over all CPUs for integration: real work        8.914 s, elapsed        9.145 s

  Updating Kohn-Sham eigenvalues, eigenvectors, occupation numbers, and Fermi level.
  Solving generalized eigenproblem
  Updating Kohn-Sham eigenvalues and eigenfunctions.
  Solving real generalised eigenvalue problem by standard LAPACK (fast)
  Determining occupation numbers for Kohn-Sham eigenstates.
  | Chemical potential (Fermi level) in eV                 : -.20209476E+01
  | Error in electron count due to remaining E_F inaccuracy: 0.85265128E-13
  | Maximum occupation number of highest empty state:  0.00E+00

  Highest occupied state (VBM) at     -2.02094760 eV
  | Occupation number:      1.00000000

  Lowest unoccupied state (CBM) at    -1.45445847 eV
  | Occupation number:      0.00000000

  Overall HOMO-LUMO gap:      0.56648913 eV.

  Total energy components:
  | Sum of eigenvalues            :        -210.64326622 Ha       -5731.89490935 eV
  | XC energy correction          :         -46.73986629 Ha       -1271.85647296 eV
  | XC potential correction       :          59.76341170 Ha        1626.24517470 eV
  | Free-atom electrostatic energy:        -178.58924559 Ha       -4859.66062920 eV
  | Hartree energy correction     :          -7.07338763 Ha        -192.47667056 eV
  | van der Waals energy corr.    :           0.00000000 Ha           0.00000000 eV
  | Entropy correction            :          -0.00010367 Ha          -0.00282095 eV
  | ---------------------------
  | Total energy                  :        -383.28235402 Ha      -10429.64350736 eV
  | Total energy, T -> 0          :        -383.28245769 Ha      -10429.64632831 eV  <-- do not rely on this value for anything but (periodic) metals
  | Electronic free energy        :        -383.28256136 Ha      -10429.64914926 eV

  Derived energy quantities:
  | Kinetic energy                :         384.04202737 Ha       10450.31527094 eV
  | Electrostatic energy          :        -720.58451511 Ha      -19608.10230534 eV
  | Energy correction for multipole
  | error in Hartree potential    :           0.00076547 Ha           0.02082959 eV
  | Sum of eigenvalues per atom                           :        -358.24343183 eV
  | Total energy (T->0) per atom                          :        -651.85289552 eV  <-- do not rely on this value for anything but (periodic) metals
  | Electronic free energy per atom                       :        -651.85307183 eV

  Self-consistency convergence accuracy:
  | Change of charge density      : 0.4769E+00
  | Change of sum of eigenvalues  : 0.1364E+03 eV
  | Change of total energy        : 0.3533E+01 eV

  End self-consistency iteration #     2       :  max(cpu_time)    wall_clock(cpu1)
  | Time for this iteration                    :        2.296 s           2.296 s
  | Charge density update                      :        0.717 s           0.716 s
  | Density mixing                             :        0.006 s           0.006 s
  | Hartree multipole update                   :        0.005 s           0.005 s
  | Hartree multipole summation                :        0.365 s           0.365 s
  | Integration                                :        1.145 s           1.145 s
  | Solution of K.-S. eqns.                    :        0.057 s           0.057 s
  | Total energy evaluation                    :        0.000 s           0.000 s
------------------------------------------------------------

------------------------------------------------------------
          Begin self-consistency iteration #    3

  Date     :  20150727, Time     :  121526.908
------------------------------------------------------------
  Evaluating new KS density.
  Integration grid: deviation in total charge (<rho> - N_e) =   9.237056E-14
  Pulay mixing of updated and previous charge densities.

  Evaluating partitioned Hartree potential by multipole expansion.
  | Analytical far-field extrapolation by fixed multipoles:
  | Hartree multipole sum: apparent total charge =  -0.413836E-05
  Summing up the Hartree potential.
  Time summed over all CPUs for potential: real work        2.898 s, elapsed        2.915 s
  | RMS charge density error from multipole expansion :   0.139888E-01

  Integrating Hamiltonian matrix: batch-based integration.
  Time summed over all CPUs for integration: real work        8.914 s, elapsed        9.129 s

  Updating Kohn-Sham eigenvalues, eigenvectors, occupation numbers, and Fermi level.
  Solving generalized eigenproblem
  Updating Kohn-Sham eigenvalues and eigenfunctions.
  Solving real generalised eigenvalue problem by standard LAPACK (fast)
  Determining occupation numbers for Kohn-Sham eigenstates.
  | Chemical potential (Fermi level) in eV                 : -.20019566E+01
  | Error in electron count due to remaining E_F inaccuracy: -.85265128E-13
  | Maximum occupation number of highest empty state:  0.00E+00

  Highest occupied state (VBM) at     -7.83909671 eV
  | Occupation number:      2.00000000

  Lowest unoccupied state (CBM) at    -2.00195658 eV
  | Occupation number:      1.00000000

  Overall HOMO-LUMO gap:      5.83714013 eV.

  Total energy components:
  | Sum of eigenvalues            :        -210.99297925 Ha       -5741.41108522 eV
  | XC energy correction          :         -46.73861852 Ha       -1271.82251963 eV
  | XC potential correction       :          59.75249927 Ha        1625.94823258 eV
  | Free-atom electrostatic energy:        -178.58924559 Ha       -4859.66062920 eV
  | Hartree energy correction     :          -6.71426160 Ha        -182.70435396 eV
  | van der Waals energy corr.    :           0.00000000 Ha           0.00000000 eV
  | Entropy correction            :          -0.00010367 Ha          -0.00282095 eV
  | ---------------------------
  | Total energy                  :        -383.28260568 Ha      -10429.65035542 eV
  | Total energy, T -> 0          :        -383.28270935 Ha      -10429.65317637 eV  <-- do not rely on this value for anything but (periodic) metals
  | Electronic free energy        :        -383.28281302 Ha      -10429.65599732 eV

  Derived energy quantities:
  | Kinetic energy                :         382.25662749 Ha       10401.73206836 eV
  | Electrostatic energy          :        -718.80061465 Ha      -19559.55990416 eV
  | Energy correction for multipole
  | error in Hartree potential    :          -0.00404437 Ha          -0.11005283 eV
  | Sum of eigenvalues per atom                           :        -358.83819283 eV
  | Total energy (T->0) per atom                          :        -651.85332352 eV  <-- do not rely on this value for anything but (periodic) metals
  | Electronic free energy per atom                       :        -651.85349983 eV

  Self-consistency convergence accuracy:
  | Change of charge density      : 0.2298E+00
  | Change of sum of eigenvalues  : -.9516E+01 eV
  | Change of total energy        : -.6848E-02 eV

  End self-consistency iteration #     3       :  max(cpu_time)    wall_clock(cpu1)
  | Time for this iteration                    :        2.293 s           2.293 s
  | Charge density update                      :        0.713 s           0.713 s
  | Density mixing                             :        0.007 s           0.007 s
  | Hartree multipole update                   :        0.006 s           0.005 s
  | Hartree multipole summation                :        0.365 s           0.365 s
  | Integration                                :        1.143 s           1.143 s
  | Solution of K.-S. eqns.                    :        0.057 s           0.057 s
  | Total energy evaluation                    :        0.000 s           0.000 s
------------------------------------------------------------

------------------------------------------------------------
          Begin self-consistency iteration #    4

  Date     :  20150727, Time     :  121529.201
------------------------------------------------------------
  Evaluating new KS density.
  Integration grid: deviation in total charge (<rho> - N_e) =  -4.263256E-14
  Pulay mixing of updated and previous charge densities.

  Evaluating partitioned Hartree potential by multipole expansion.
  | Analytical far-field extrapolation by fixed multipoles:
  | Hartree multipole sum: apparent total charge =  -0.486571E-05
  Summing up the Hartree potential.
  Time summed over all CPUs for potential: real work        2.897 s, elapsed        2.914 s
  | RMS charge density error from multipole expansion :   0.174954E-01

  Integrating Hamiltonian matrix: batch-based integration.
  Time summed over all CPUs for integration: real work        8.901 s, elapsed        9.127 s

  Updating Kohn-Sham eigenvalues, eigenvectors, occupation numbers, and Fermi level.
  Solving generalized eigenproblem
  Updating Kohn-Sham eigenvalues and eigenfunctions.
  Solving real generalised eigenvalue problem by standard LAPACK (fast)
  Determining occupation numbers for Kohn-Sham eigenstates.
  | Chemical potential (Fermi level) in eV                 : -.18502425E+01
  | Error in electron count due to remaining E_F inaccuracy: -.37090331E-11
  | Maximum occupation number of highest empty state:  0.00E+00

  Highest occupied state (VBM) at     -7.14675470 eV
  | Occupation number:      2.00000000

  Lowest unoccupied state (CBM) at    -1.85024251 eV
  | Occupation number:      1.00000000

  Overall HOMO-LUMO gap:      5.29651219 eV.

  Total energy components:
  | Sum of eigenvalues            :        -209.86067722 Ha       -5710.59957935 eV
  | XC energy correction          :         -46.88922843 Ha       -1275.92082359 eV
  | XC potential correction       :          59.94584892 Ha        1631.20954402 eV
  | Free-atom electrostatic energy:        -178.58924559 Ha       -4859.66062920 eV
  | Hartree energy correction     :          -7.88448471 Ha        -214.54774507 eV
  | van der Waals energy corr.    :           0.00000000 Ha           0.00000000 eV
  | Entropy correction            :          -0.00010367 Ha          -0.00282095 eV
  | ---------------------------
  | Total energy                  :        -383.27778703 Ha      -10429.51923319 eV
  | Total energy, T -> 0          :        -383.27789070 Ha      -10429.52205414 eV  <-- do not rely on this value for anything but (periodic) metals
  | Electronic free energy        :        -383.27799437 Ha      -10429.52487509 eV

  Derived energy quantities:
  | Kinetic energy                :         382.36843194 Ha       10404.77442208 eV
  | Electrostatic energy          :        -718.75699054 Ha      -19558.37283168 eV
  | Energy correction for multipole
  | error in Hartree potential    :          -0.00553575 Ha          -0.15063554 eV
  | Sum of eigenvalues per atom                           :        -356.91247371 eV
  | Total energy (T->0) per atom                          :        -651.84512838 eV  <-- do not rely on this value for anything but (periodic) metals
  | Electronic free energy per atom                       :        -651.84530469 eV

  Self-consistency convergence accuracy:
  | Change of charge density      : 0.1015E+00
  | Change of sum of eigenvalues  : 0.3081E+02 eV
  | Change of total energy        : 0.1311E+00 eV

  End self-consistency iteration #     4       :  max(cpu_time)    wall_clock(cpu1)
  | Time for this iteration                    :        2.293 s           2.293 s
  | Charge density update                      :        0.713 s           0.713 s
  | Density mixing                             :        0.008 s           0.009 s
  | Hartree multipole update                   :        0.005 s           0.005 s
  | Hartree multipole summation                :        0.365 s           0.365 s
  | Integration                                :        1.142 s           1.143 s
  | Solution of K.-S. eqns.                    :        0.057 s           0.057 s
  | Total energy evaluation                    :        0.000 s           0.001 s
------------------------------------------------------------

------------------------------------------------------------
          Begin self-consistency iteration #    5

  Date     :  20150727, Time     :  121531.495
------------------------------------------------------------
  Evaluating new KS density.
  Integration grid: deviation in total charge (<rho> - N_e) =  -3.694822E-12
  Pulay mixing of updated and previous charge densities.

  Evaluating partitioned Hartree potential by multipole expansion.
  | Analytical far-field extrapolation by fixed multipoles:
  | Hartree multipole sum: apparent total charge =  -0.498371E-05
  Summing up the Hartree potential.
  Time summed over all CPUs for potential: real work        2.897 s, elapsed        2.914 s
  | RMS charge density error from multipole expansion :   0.177533E-01

  Integrating Hamiltonian matrix: batch-based integration.
  Time summed over all CPUs for integration: real work        8.904 s, elapsed        9.126 s

  Updating Kohn-Sham eigenvalues, eigenvectors, occupation numbers, and Fermi level.
  Solving generalized eigenproblem
  Updating Kohn-Sham eigenvalues and eigenfunctions.
  Solving real generalised eigenvalue problem by standard LAPACK (fast)
  Determining occupation numbers for Kohn-Sham eigenstates.
  | Chemical potential (Fermi level) in eV                 : -.18402707E+01
  | Error in electron count due to remaining E_F inaccuracy: 0.00000000E+00
  | Maximum occupation number of highest empty state:  0.00E+00

  Highest occupied state (VBM) at     -1.84027065 eV
  | Occupation number:      1.00000000

  Lowest unoccupied state (CBM) at    -1.84027065 eV
  | Occupation number:      1.00000000

  Overall HOMO-LUMO gap:      0.00000000 eV.

  Total energy components:
  | Sum of eigenvalues            :        -209.84179232 Ha       -5710.08569503 eV
  | XC energy correction          :         -46.89257695 Ha       -1276.01194148 eV
  | XC potential correction       :          59.94989842 Ha        1631.31973672 eV
  | Free-atom electrostatic energy:        -178.58924559 Ha       -4859.66062920 eV
  | Hartree energy correction     :          -7.90380154 Ha        -215.07338269 eV
  | van der Waals energy corr.    :           0.00000000 Ha           0.00000000 eV
  | Entropy correction            :          -0.00010367 Ha          -0.00282095 eV
  | ---------------------------
  | Total energy                  :        -383.27751797 Ha      -10429.51191168 eV
  | Total energy, T -> 0          :        -383.27762164 Ha      -10429.51473263 eV  <-- do not rely on this value for anything but (periodic) metals
  | Electronic free energy        :        -383.27772531 Ha      -10429.51755357 eV

  Derived energy quantities:
  | Kinetic energy                :         382.35395290 Ha       10404.38042747 eV
  | Electrostatic energy          :        -718.73889392 Ha      -19557.88039767 eV
  | Energy correction for multipole
  | error in Hartree potential    :          -0.00575115 Ha          -0.15649675 eV
  | Sum of eigenvalues per atom                           :        -356.88035594 eV
  | Total energy (T->0) per atom                          :        -651.84467079 eV  <-- do not rely on this value for anything but (periodic) metals
  | Electronic free energy per atom                       :        -651.84484710 eV

  Self-consistency convergence accuracy:
  | Change of charge density      : 0.2160E-01
  | Change of sum of eigenvalues  : 0.5139E+00 eV
  | Change of total energy        : 0.7322E-02 eV

  End self-consistency iteration #     5       :  max(cpu_time)    wall_clock(cpu1)
  | Time for this iteration                    :        2.298 s           2.297 s
  | Charge density update                      :        0.716 s           0.715 s
  | Density mixing                             :        0.010 s           0.011 s
  | Hartree multipole update                   :        0.005 s           0.005 s
  | Hartree multipole summation                :        0.366 s           0.365 s
  | Integration                                :        1.142 s           1.143 s
  | Solution of K.-S. eqns.                    :        0.058 s           0.057 s
  | Total energy evaluation                    :        0.000 s           0.001 s
------------------------------------------------------------

------------------------------------------------------------
          Begin self-consistency iteration #    6

  Date     :  20150727, Time     :  121533.793
------------------------------------------------------------
  Evaluating new KS density.
  Integration grid: deviation in total charge (<rho> - N_e) =  -2.131628E-14
  Pulay mixing of updated and previous charge densities.

  Evaluating partitioned Hartree potential by multipole expansion.
  | Analytical far-field extrapolation by fixed multipoles:
  | Hartree multipole sum: apparent total charge =  -0.502283E-05
  Summing up the Hartree potential.
  Time summed over all CPUs for potential: real work        2.898 s, elapsed        2.914 s
  | RMS charge density error from multipole expansion :   0.179480E-01

  Integrating Hamiltonian matrix: batch-based integration.
  Time summed over all CPUs for integration: real work        8.906 s, elapsed        9.135 s

  Updating Kohn-Sham eigenvalues, eigenvectors, occupation numbers, and Fermi level.
  Solving generalized eigenproblem
  Updating Kohn-Sham eigenvalues and eigenfunctions.
  Solving real generalised eigenvalue problem by standard LAPACK (fast)
  Determining occupation numbers for Kohn-Sham eigenstates.
  | Chemical potential (Fermi level) in eV                 : -.18563942E+01
  | Error in electron count due to remaining E_F inaccuracy: -.86475609E-08
  | Maximum occupation number of highest empty state:  0.00E+00

  Highest occupied state (VBM) at     -7.24632461 eV
  | Occupation number:      2.00000000

  Lowest unoccupied state (CBM) at    -1.85639420 eV
  | Occupation number:      0.99999999

  Overall HOMO-LUMO gap:      5.38993041 eV.

  Total energy components:
  | Sum of eigenvalues            :        -209.91343791 Ha       -5712.03527080 eV
  | XC energy correction          :         -46.88627520 Ha       -1275.84046213 eV
  | XC potential correction       :          59.94124402 Ha        1631.08423836 eV
  | Free-atom electrostatic energy:        -178.58924559 Ha       -4859.66062920 eV
  | Hartree energy correction     :          -7.82971249 Ha        -213.05731698 eV
  | van der Waals energy corr.    :           0.00000000 Ha           0.00000000 eV
  | Entropy correction            :          -0.00010367 Ha          -0.00282095 eV
  | ---------------------------
  | Total energy                  :        -383.27742716 Ha      -10429.50944075 eV
  | Total energy, T -> 0          :        -383.27753083 Ha      -10429.51226170 eV  <-- do not rely on this value for anything but (periodic) metals
  | Electronic free energy        :        -383.27763450 Ha      -10429.51508265 eV

  Derived energy quantities:
  | Kinetic energy                :         382.32844591 Ha       10403.68634691 eV
  | Electrostatic energy          :        -718.71959788 Ha      -19557.35532553 eV
  | Energy correction for multipole
  | error in Hartree potential    :          -0.00608206 Ha          -0.16550119 eV
  | Sum of eigenvalues per atom                           :        -357.00220443 eV
  | Total energy (T->0) per atom                          :        -651.84451636 eV  <-- do not rely on this value for anything but (periodic) metals
  | Electronic free energy per atom                       :        -651.84469267 eV

  Self-consistency convergence accuracy:
  | Change of charge density      : 0.1517E-01
  | Change of sum of eigenvalues  : -.1950E+01 eV
  | Change of total energy        : 0.2471E-02 eV

  End self-consistency iteration #     6       :  max(cpu_time)    wall_clock(cpu1)
  | Time for this iteration                    :        2.300 s           2.299 s
  | Charge density update                      :        0.716 s           0.715 s
  | Density mixing                             :        0.011 s           0.011 s
  | Hartree multipole update                   :        0.005 s           0.005 s
  | Hartree multipole summation                :        0.365 s           0.365 s
  | Integration                                :        1.144 s           1.143 s
  | Solution of K.-S. eqns.                    :        0.057 s           0.056 s
  | Total energy evaluation                    :        0.000 s           0.001 s
------------------------------------------------------------

------------------------------------------------------------
          Begin self-consistency iteration #    7

  Date     :  20150727, Time     :  121536.092
------------------------------------------------------------
  Evaluating new KS density.
  Integration grid: deviation in total charge (<rho> - N_e) =  -8.647532E-09
  Pulay mixing of updated and previous charge densities.

  Evaluating partitioned Hartree potential by multipole expansion.
  | Analytical far-field extrapolation by fixed multipoles:
  | Hartree multipole sum: apparent total charge =  -0.500904E-05
  Summing up the Hartree potential.
  Time summed over all CPUs for potential: real work        2.898 s, elapsed        2.915 s
  | RMS charge density error from multipole expansion :   0.179491E-01

  Integrating Hamiltonian matrix: batch-based integration.
  Time summed over all CPUs for integration: real work        8.912 s, elapsed        9.134 s

  Updating Kohn-Sham eigenvalues, eigenvectors, occupation numbers, and Fermi level.
  Solving generalized eigenproblem
  Updating Kohn-Sham eigenvalues and eigenfunctions.
  Solving real generalised eigenvalue problem by standard LAPACK (fast)
  Determining occupation numbers for Kohn-Sham eigenstates.
  | Chemical potential (Fermi level) in eV                 : -.18612459E+01
  | Error in electron count due to remaining E_F inaccuracy: 0.00000000E+00
  | Maximum occupation number of highest empty state:  0.00E+00

  Highest occupied state (VBM) at     -1.86124590 eV
  | Occupation number:      1.00000000

  Lowest unoccupied state (CBM) at    -1.86124590 eV
  | Occupation number:      1.00000000

  Overall HOMO-LUMO gap:      0.00000000 eV.

  Total energy components:
  | Sum of eigenvalues            :        -209.92305202 Ha       -5712.29688380 eV
  | XC energy correction          :         -46.88558619 Ha       -1275.82171329 eV
  | XC potential correction       :          59.94029195 Ha        1631.05833127 eV
  | Free-atom electrostatic energy:        -178.58924559 Ha       -4859.66062920 eV
  | Hartree energy correction     :          -7.81982763 Ha        -212.78833625 eV
  | van der Waals energy corr.    :           0.00000000 Ha           0.00000000 eV
  | Entropy correction            :          -0.00010367 Ha          -0.00282095 eV
  | ---------------------------
  | Total energy                  :        -383.27741947 Ha      -10429.50923128 eV
  | Total energy, T -> 0          :        -383.27752313 Ha      -10429.51205223 eV  <-- do not rely on this value for anything but (periodic) metals
  | Electronic free energy        :        -383.27762680 Ha      -10429.51487317 eV

  Derived energy quantities:
  | Kinetic energy                :         382.34385485 Ha       10404.10564562 eV
  | Electrostatic energy          :        -718.73568813 Ha      -19557.79316361 eV
  | Energy correction for multipole
  | error in Hartree potential    :          -0.00614071 Ha          -0.16709709 eV
  | Sum of eigenvalues per atom                           :        -357.01855524 eV
  | Total energy (T->0) per atom                          :        -651.84450326 eV  <-- do not rely on this value for anything but (periodic) metals
  | Electronic free energy per atom                       :        -651.84467957 eV

  Self-consistency convergence accuracy:
  | Change of charge density      : 0.6297E-02
  | Change of sum of eigenvalues  : -.2616E+00 eV
  | Change of total energy        : 0.2095E-03 eV

  End self-consistency iteration #     7       :  max(cpu_time)    wall_clock(cpu1)
  | Time for this iteration                    :        2.300 s           2.298 s
  | Charge density update                      :        0.714 s           0.713 s
  | Density mixing                             :        0.013 s           0.013 s
  | Hartree multipole update                   :        0.005 s           0.005 s
  | Hartree multipole summation                :        0.366 s           0.365 s
  | Integration                                :        1.143 s           1.144 s
  | Solution of K.-S. eqns.                    :        0.057 s           0.057 s
  | Total energy evaluation                    :        0.000 s           0.001 s
------------------------------------------------------------

------------------------------------------------------------
          Begin self-consistency iteration #    8

  Date     :  20150727, Time     :  121538.392
------------------------------------------------------------
  Evaluating new KS density.
  Integration grid: deviation in total charge (<rho> - N_e) =   4.263256E-14
  Pulay mixing of updated and previous charge densities.

  Evaluating partitioned Hartree potential by multipole expansion.
  | Analytical far-field extrapolation by fixed multipoles:
  | Hartree multipole sum: apparent total charge =  -0.507623E-05
  Summing up the Hartree potential.
  Time summed over all CPUs for potential: real work        2.897 s, elapsed        2.914 s
  | RMS charge density error from multipole expansion :   0.180781E-01

  Integrating Hamiltonian matrix: batch-based integration.
  Time summed over all CPUs for integration: real work        8.916 s, elapsed        9.136 s

  Updating Kohn-Sham eigenvalues, eigenvectors, occupation numbers, and Fermi level.
  Solving generalized eigenproblem
  Updating Kohn-Sham eigenvalues and eigenfunctions.
  Solving real generalised eigenvalue problem by standard LAPACK (fast)
  Determining occupation numbers for Kohn-Sham eigenstates.
  | Chemical potential (Fermi level) in eV                 : -.18792912E+01
  | Error in electron count due to remaining E_F inaccuracy: 0.16875390E-10
  | Maximum occupation number of highest empty state:  0.00E+00

  Highest occupied state (VBM) at     -1.87929119 eV
  | Occupation number:      1.00000000

  Lowest unoccupied state (CBM) at    -1.30690784 eV
  | Occupation number:      0.00000000

  Overall HOMO-LUMO gap:      0.57238335 eV.

  Total energy components:
  | Sum of eigenvalues            :        -209.98815063 Ha       -5714.06830729 eV
  | XC energy correction          :         -46.88097866 Ha       -1275.69633616 eV
  | XC potential correction       :          59.93392004 Ha        1630.88494293 eV
  | Free-atom electrostatic energy:        -178.58924559 Ha       -4859.66062920 eV
  | Hartree energy correction     :          -7.75296140 Ha        -210.96881371 eV
  | van der Waals energy corr.    :           0.00000000 Ha           0.00000000 eV
  | Entropy correction            :          -0.00010367 Ha          -0.00282095 eV
  | ---------------------------
  | Total energy                  :        -383.27741624 Ha      -10429.50914343 eV
  | Total energy, T -> 0          :        -383.27751991 Ha      -10429.51196437 eV  <-- do not rely on this value for anything but (periodic) metals
  | Electronic free energy        :        -383.27762357 Ha      -10429.51478532 eV

  Derived energy quantities:
  | Kinetic energy                :         382.36232436 Ha       10404.60822641 eV
  | Electrostatic energy          :        -718.75876193 Ha      -19558.42103367 eV
  | Energy correction for multipole
  | error in Hartree potential    :          -0.00647784 Ha          -0.17627105 eV
  | Sum of eigenvalues per atom                           :        -357.12926921 eV
  | Total energy (T->0) per atom                          :        -651.84449777 eV  <-- do not rely on this value for anything but (periodic) metals
  | Electronic free energy per atom                       :        -651.84467408 eV

  Self-consistency convergence accuracy:
  | Change of charge density      : 0.5117E-02
  | Change of sum of eigenvalues  : -.1771E+01 eV
  | Change of total energy        : 0.8785E-04 eV

  End self-consistency iteration #     8       :  max(cpu_time)    wall_clock(cpu1)
  | Time for this iteration                    :        2.301 s           2.300 s
  | Charge density update                      :        0.714 s           0.713 s
  | Density mixing                             :        0.014 s           0.015 s
  | Hartree multipole update                   :        0.005 s           0.005 s
  | Hartree multipole summation                :        0.365 s           0.365 s
  | Integration                                :        1.144 s           1.144 s
  | Solution of K.-S. eqns.                    :        0.057 s           0.057 s
  | Total energy evaluation                    :        0.000 s           0.001 s
------------------------------------------------------------

------------------------------------------------------------
          Begin self-consistency iteration #    9

  Date     :  20150727, Time     :  121540.693
------------------------------------------------------------
  Evaluating new KS density.
  Integration grid: deviation in total charge (<rho> - N_e) =   1.686828E-11
  Pulay mixing of updated and previous charge densities.

  Evaluating partitioned Hartree potential by multipole expansion.
  | Analytical far-field extrapolation by fixed multipoles:
  | Hartree multipole sum: apparent total charge =  -0.507332E-05
  Summing up the Hartree potential.
  Time summed over all CPUs for potential: real work        2.897 s, elapsed        2.914 s
  | RMS charge density error from multipole expansion :   0.180703E-01

  Integrating Hamiltonian matrix: batch-based integration.
  Time summed over all CPUs for integration: real work        8.906 s, elapsed        9.137 s

  Updating Kohn-Sham eigenvalues, eigenvectors, occupation numbers, and Fermi level.
  Solving generalized eigenproblem
  Updating Kohn-Sham eigenvalues and eigenfunctions.
  Solving real generalised eigenvalue problem by standard LAPACK (fast)
  Determining occupation numbers for Kohn-Sham eigenstates.
  | Chemical potential (Fermi level) in eV                 : -.18813188E+01
  | Error in electron count due to remaining E_F inaccuracy: 0.14649970E-09
  | Maximum occupation number of highest empty state:  0.00E+00

  Highest occupied state (VBM) at     -1.88131878 eV
  | Occupation number:      1.00000000

  Lowest unoccupied state (CBM) at    -1.30750228 eV
  | Occupation number:      0.00000000

  Overall HOMO-LUMO gap:      0.57381650 eV.

  Total energy components:
  | Sum of eigenvalues            :        -209.99875685 Ha       -5714.35691721 eV
  | XC energy correction          :         -46.88027738 Ha       -1275.67725315 eV
  | XC potential correction       :          59.93297920 Ha        1630.85934127 eV
  | Free-atom electrostatic energy:        -178.58924559 Ha       -4859.66062920 eV
  | Hartree energy correction     :          -7.74211389 Ha        -210.67363801 eV
[...]
   Van der Waals               : 0.663092E-03 0.637327E-03 0.196835E-02
   ----------------------------------------------------------------
   Total forces(   7)            : 0.340052E+00 0.481967E+00 0.178868E+00
  atom #    8
   Hellmann-Feynman + Multipole  : -.452492E+01 0.227322E+01 -.957725E+01
   Pulay + GGA                   : 0.633718E+01 -.286049E+01 0.103977E+02
   Van der Waals               : 0.263811E-02 -.132202E-02 0.118901E-02
   ----------------------------------------------------------------
   Total forces(   8)            : 0.181490E+01 -.588589E+00 0.821666E+00
  atom #    9
   Hellmann-Feynman + Multipole  : -.333229E+00 0.203118E-01 -.486166E+00
   Pulay + GGA                   : 0.327548E-01 0.417040E-01 0.758932E-01
   Van der Waals               : 0.188112E-02 0.163845E-02 0.626836E-02
   ----------------------------------------------------------------
   Total forces(   9)            : -.298593E+00 0.636543E-01 -.404004E+00
  atom #   10
   Hellmann-Feynman + Multipole  : -.157533E+01 0.825106E+00 -.373329E+00
   Pulay + GGA                   : 0.105612E+00 -.688145E-01 0.239823E-01
   Van der Waals               : -.323990E-02 0.244483E-02 0.333056E-02
   ----------------------------------------------------------------
   Total forces(  10)            : -.147296E+01 0.758737E+00 -.346016E+00
  atom #   11
   Hellmann-Feynman + Multipole  : 0.438720E+01 -.497968E+01 -.667494E+01
   Pulay + GGA                   : -.558814E+01 0.603674E+01 0.807213E+01
   Van der Waals               : 0.941415E-03 -.101529E-02 -.510651E-02
   ----------------------------------------------------------------
   Total forces(  11)            : -.120000E+01 0.105605E+01 0.139207E+01
  atom #   12
   Hellmann-Feynman + Multipole  : -.261853E+00 0.237567E+00 -.152561E+01
   Pulay + GGA                   : 0.229067E-01 -.937417E-02 0.143926E+00
   Van der Waals               : 0.195814E-03 0.334426E-03 0.498474E-03
   ----------------------------------------------------------------
   Total forces(  12)            : -.238750E+00 0.228527E+00 -.138119E+01
  atom #   13
   Hellmann-Feynman + Multipole  : 0.128339E+01 -.134631E+01 0.406156E+00
   Pulay + GGA                   : -.108687E+00 0.102290E+00 -.278408E-01
   Van der Waals               : -.361662E-04 -.259601E-03 -.255430E-02
   ----------------------------------------------------------------
   Total forces(  13)            : 0.117467E+01 -.124428E+01 0.375761E+00
  atom #   14
   Hellmann-Feynman + Multipole  : -.304963E+01 -.652325E+00 -.139260E+02
   Pulay + GGA                   : 0.457174E+01 0.113538E+01 0.116788E+02
   Van der Waals               : -.211209E-02 -.380635E-02 -.495407E-02
   ----------------------------------------------------------------
   Total forces(  14)            : 0.152000E+01 0.479248E+00 -.225214E+01
  atom #   15
   Hellmann-Feynman + Multipole  : -.342849E+00 -.165343E+00 0.235985E+00
   Pulay + GGA                   : 0.916888E-01 0.625887E-01 0.559829E-01
   Van der Waals               : -.236405E-02 -.352296E-02 -.130097E-02
   ----------------------------------------------------------------
   Total forces(  15)            : -.253524E+00 -.106277E+00 0.290667E+00
  atom #   16
   Hellmann-Feynman + Multipole  : -.773833E+00 -.325690E+00 0.160906E+01
   Pulay + GGA                   : -.462218E-01 -.171451E-01 0.639556E-01
   Van der Waals               : -.247777E-02 -.380438E-02 -.391739E-02
   ----------------------------------------------------------------
   Total forces(  16)            : -.822532E+00 -.346640E+00 0.166909E+01
  Timings for vdw_correction_hirshfeld (Tkatchenko-Scheffler 2009):
  | CPU time:        6.019 s, Wall clock time:        6.022 s.
  Removing unitary transformations (pure translations, rotations) from forces on atoms.
  Atomic forces before filtering:
  | Net force on center of mass :  0.803337E-03 -.373576E-02 0.387841E-03 eV/A
  | Net torque on center of mass:  0.254741E-01 -.920113E-03 -.611860E-03 eV
  Atomic forces after filtering:
  | Net force on center of mass :  0.535218E-15 -.579820E-15 0.356812E-15 eV/A
  | Net torque on center of mass:  0.151054E-14 0.245462E-14 -.217139E-14 eV
 
  Energy and forces in a compact form:
  | Total energy uncorrected      :         -0.104296066819395E+05 eV
  | Total energy corrected        :         -0.104296095028874E+05 eV  <-- do not rely on this value for anything but (periodic) metals
  | Electronic free energy        :         -0.104296123238354E+05 eV
  Total atomic forces (unitary forces cleaned) [eV/Ang]:
  |   1         -0.150101919588455E+01          0.162968058768649E+01         -0.180705968875066E+01
  |   2          0.861601212688911E+00         -0.167360983214232E+01          0.744185256488037E+00
  |   3          0.842592401016292E+00          0.108781486586419E+00         -0.876310502235267E-01
  |   4         -0.227573219778308E+00         -0.111524888875023E+00          0.988213240327330E+00
  |   5         -0.592896535603909E+00         -0.216512948739858E+01         -0.146315222181995E+01
  |   6          0.552218802281730E-01          0.142458091717552E+01          0.128308868603108E+01
  |   7          0.340120775751420E+00          0.482432711756266E+00          0.179577244779184E+00
  |   8          0.181496093370311E+01         -0.588988866156002E+00          0.821852265076958E+00
  |   9         -0.298624248995155E+00          0.635991756682024E-01         -0.404087691924247E+00
  |  10         -0.147285888378005E+01          0.758460060113179E+00         -0.345537165172073E+00
  |  11         -0.120020870531631E+01          0.105706257658804E+01          0.139166115551581E+01
  |  12         -0.238998820331713E+00          0.229992980779522E+00         -0.138156764618139E+01
  |  13          0.117440593941159E+01         -0.124339195645535E+01          0.375000287266717E+00
  |  14          0.151979875789738E+01          0.479667421828124E+00         -0.225283310531968E+01
  |  15         -0.253782966274870E+00         -0.105649451666039E+00          0.289786871371972E+00
  |  16         -0.822739324732017E+00         -0.345963435488451E+00          0.166850356253445E+01
 
  ------------------------------------ 
  Start decomposition of the XC Energy 
  ------------------------------------ 
  Hartree-Fock part   :          0.000000000 Ha              0.000000000 eV
  ------------------------------------ 
  X Energy            :        -45.216029103 Ha          -1230.390753489 eV
  C Energy GGA        :         -1.664555808 Ha            -45.294868121 eV
  Total XC Energy     :        -46.880584911 Ha          -1275.685621610 eV
  LDA X and C from self-consistent density 
  X Energy LDA        :        -40.775040656 Ha          -1109.545309284 eV
  C Energy LDA        :         -3.341162104 Ha            -90.917646679 eV
  ------------------------------------ 
  End decomposition of the XC Energy 
  ------------------------------------ 
  Performing Hirshfeld analysis of fragment charges and moments.
  ----------------------------------------------------------------------
  | Atom     1: O
  |   Hirshfeld charge        :     -0.13412886
  |   Free atom volume        :     23.95238533
  |   Hirshfeld volume        :     22.14216534
  |   Hirshfeld dipole vector :      0.02188139       0.01808044       0.03038364
  |   Hirshfeld dipole moment :      0.04157960
  |   Hirshfeld second moments:      0.06595001      -0.00573482      -0.00924904
  |                                 -0.00573482       0.03857447      -0.02575373
  |                                 -0.00924904      -0.02575373       0.05250598
  ----------------------------------------------------------------------
  | Atom     2: H
  |   Hirshfeld charge        :      0.06697858
  |   Free atom volume        :     10.44207651
  |   Hirshfeld volume        :     14.92833079
  |   Hirshfeld dipole vector :      0.03687060      -0.02258057       0.00986525
  |   Hirshfeld dipole moment :      0.04434689
  |   Hirshfeld second moments:     -0.04634100       0.04268713      -0.01288622
  |                                  0.04268713      -0.08274968       0.00863016
  |                                 -0.01288622       0.00863016      -0.02901444
  ----------------------------------------------------------------------
  | Atom     3: H
  |   Hirshfeld charge        :      0.10598366
  |   Free atom volume        :     10.44207651
  |   Hirshfeld volume        :      9.44606606
  |   Hirshfeld dipole vector :      0.02175033       0.00052087       0.01125054
  |   Hirshfeld dipole moment :      0.02449332
  |   Hirshfeld second moments:      0.01963089      -0.01459804      -0.00410327
  |                                 -0.01459804       0.05776454       0.00462361
  |                                 -0.00410327       0.00462361       0.06720946
  ----------------------------------------------------------------------
  | Atom     4: H
  |   Hirshfeld charge        :      0.09980816
  |   Free atom volume        :     10.44207651
  |   Hirshfeld volume        :     10.04411272
  |   Hirshfeld dipole vector :      0.00184653      -0.00675751       0.02166194
  |   Hirshfeld dipole moment :      0.02276649
  |   Hirshfeld second moments:      0.05034871       0.01666847       0.00547398
  |                                  0.01666847       0.04840568       0.00549249
  |                                  0.00547398       0.00549249       0.01339301
  ----------------------------------------------------------------------
  | Atom     5: O
  |   Hirshfeld charge        :     -0.24216856
  |   Free atom volume        :     23.95238533
  |   Hirshfeld volume        :     22.30866597
  |   Hirshfeld dipole vector :     -0.01754723       0.02082799      -0.00417769
  |   Hirshfeld dipole moment :      0.02755292
  |   Hirshfeld second moments:      0.02460151       0.05258569      -0.01586123
  |                                  0.05258569       0.02214736       0.01206717
  |                                 -0.01586123       0.01206717       0.04476676
  ----------------------------------------------------------------------
  | Atom     6: H
  |   Hirshfeld charge        :      0.08234302
  |   Free atom volume        :     10.44207651
  |   Hirshfeld volume        :     10.08801841
  |   Hirshfeld dipole vector :      0.02096756       0.02799237       0.02074174
  |   Hirshfeld dipole moment :      0.04066240
  |   Hirshfeld second moments:      0.04076347       0.01383520      -0.01260048
  |                                  0.01383520       0.02000684      -0.01056639
  |                                 -0.01260048      -0.01056639       0.04254114
  ----------------------------------------------------------------------
  | Atom     7: H
  |   Hirshfeld charge        :      0.11971125
  |   Free atom volume        :     10.44207651
  |   Hirshfeld volume        :     10.74201806
  |   Hirshfeld dipole vector :     -0.05836077      -0.04933346       0.01552774
  |   Hirshfeld dipole moment :      0.07798000
  |   Hirshfeld second moments:      0.02289713       0.02039426      -0.00281557
  |                                  0.02039426       0.04132395       0.01086473
  |                                 -0.00281557       0.01086473       0.04587778
  ----------------------------------------------------------------------
  | Atom     8: O
  |   Hirshfeld charge        :     -0.22628711
  |   Free atom volume        :     23.95238533
  |   Hirshfeld volume        :     22.01649464
  |   Hirshfeld dipole vector :     -0.00895640      -0.01743008       0.03639076
  |   Hirshfeld dipole moment :      0.04133174
  |   Hirshfeld second moments:      0.05958219      -0.01543667       0.00545881
  |                                 -0.01543667       0.03837692       0.03390356
  |                                  0.00545881       0.03390356       0.00260341
  ----------------------------------------------------------------------
  | Atom     9: H
  |   Hirshfeld charge        :      0.09876571
  |   Free atom volume        :     10.44207651
  |   Hirshfeld volume        :      9.09773417
  |   Hirshfeld dipole vector :      0.01167818       0.01756951       0.03870896
  |   Hirshfeld dipole moment :      0.04408459
  |   Hirshfeld second moments:      0.07860998       0.00790732      -0.00035005
  |                                  0.00790732       0.04484327      -0.01377901
  |                                 -0.00035005      -0.01377901       0.03270391
  ----------------------------------------------------------------------
  | Atom    10: H
  |   Hirshfeld charge        :      0.13287962
  |   Free atom volume        :     10.44207651
  |   Hirshfeld volume        :      8.98293359
  |   Hirshfeld dipole vector :      0.06897234      -0.05156733       0.01013277
  |   Hirshfeld dipole moment :      0.08671243
  |   Hirshfeld second moments:      0.06579476       0.00619026      -0.00133425
  |                                  0.00619026       0.06906244       0.01663474
  |                                 -0.00133425       0.01663474       0.06759705
  ----------------------------------------------------------------------
  | Atom    11: O
  |   Hirshfeld charge        :     -0.19880401
  |   Free atom volume        :     23.95238533
  |   Hirshfeld volume        :     22.23200899
  |   Hirshfeld dipole vector :      0.00886562      -0.00381345      -0.01415960
  |   Hirshfeld dipole moment :      0.01713580
  |   Hirshfeld second moments:      0.02521321      -0.01500420       0.00568762
  |                                 -0.01500420       0.03548323      -0.00658203
  |                                  0.00568762      -0.00658203       0.05104607
  ----------------------------------------------------------------------
  | Atom    12: H
  |   Hirshfeld charge        :      0.08870957
  |   Free atom volume        :     10.44207651
  |   Hirshfeld volume        :     12.19375979
  |   Hirshfeld dipole vector :      0.02044712      -0.01603679       0.03561612
  |   Hirshfeld dipole moment :      0.04408823
  |   Hirshfeld second moments:      0.00429073      -0.00705696       0.00665445
  |                                 -0.00705696       0.01081316      -0.00475152
  |                                  0.00665445      -0.00475152      -0.00301664
  ----------------------------------------------------------------------
  | Atom    13: H
  |   Hirshfeld charge        :      0.08518618
  |   Free atom volume        :     10.44207651
  |   Hirshfeld volume        :     12.88682627
  |   Hirshfeld dipole vector :     -0.00916449       0.02640824      -0.01518365
  |   Hirshfeld dipole moment :      0.03181079
  |   Hirshfeld second moments:     -0.01998817       0.00579032      -0.00917279
  |                                  0.00579032       0.00050302      -0.00109759
  |                                 -0.00917279      -0.00109759      -0.00812286
  ----------------------------------------------------------------------
  | Atom    14: O
  |   Hirshfeld charge        :     -0.27798124
  |   Free atom volume        :     23.95238533
  |   Hirshfeld volume        :     22.44867128
  |   Hirshfeld dipole vector :      0.02230371      -0.01897757       0.03162416
  |   Hirshfeld dipole moment :      0.04310094
  |   Hirshfeld second moments:      0.03031387       0.04614984      -0.02230822
  |                                  0.04614984       0.01324265       0.02379257
  |                                 -0.02230822       0.02379257       0.01214101
  ----------------------------------------------------------------------
  | Atom    15: H
  |   Hirshfeld charge        :      0.12567693
  |   Free atom volume        :     10.44207651
  |   Hirshfeld volume        :      8.94385630
  |   Hirshfeld dipole vector :      0.08141321       0.05136693       0.02270417
  |   Hirshfeld dipole moment :      0.09890476
  |   Hirshfeld second moments:      0.06589178       0.01483459      -0.01348045
  |                                  0.01483459       0.06797226      -0.00064342
  |                                 -0.01348045      -0.00064342       0.06948691
  ----------------------------------------------------------------------
  | Atom    16: H
  |   Hirshfeld charge        :      0.07333041
  |   Free atom volume        :     10.44207651
  |   Hirshfeld volume        :      9.69536306
  |   Hirshfeld dipole vector :     -0.01874807      -0.02269029       0.02997900
  |   Hirshfeld dipole moment :      0.04201285
  |   Hirshfeld second moments:      0.04053189       0.00882330       0.01162216
  |                                  0.00882330       0.04751100       0.01907955
  |                                  0.01162216       0.01907955       0.02906192
  ----------------------------------------------------------------------


------------------------------------------------------------------------------
  Final output of selected total energy values:

  The following output summarizes some interesting total energy values
  at the end of a run (AFTER all relaxation, molecular dynamics, etc.).

  | Total energy of the DFT / Hartree-Fock s.c.f. calculation      :         -10429.606681940 eV
  | Final zero-broadening corrected energy (caution - metals only) :         -10429.609502887 eV
  | For reference only, the value of 1 Hartree used in FHI-aims is :             27.211384500 eV

  Before relying on these values, please be sure to understand exactly which
  total energy value is referred to by a given number. Different objects may
  all carry the same name 'total energy'. Definitions:

  Total energy of the DFT / Hartree-Fock s.c.f. calculation:
  | Note that this energy does not include ANY quantities calculated after the
  | s.c.f. cycle, in particular not ANY RPA, MP2, etc. many-body perturbation terms.

  Final zero-broadening corrected energy:
  | For metallic systems only, a broadening of the occupation numbers at the Fermi
  | level can be extrapolated back to zero broadening by an electron-gas inspired
  | formula. For all systems that are not real metals, this value can be
  | meaningless and should be avoided.

------------------------------------------------------------------------------

------------------------------------------------------------
          Leaving FHI-aims.
          Date     :  20150727, Time     :  121609.659

          Computational steps:
          | Number of self-consistency cycles          :           17

          Detailed time accounting                     :  max(cpu_time)    wall_clock(cpu1)
          | Total time                                 :       50.201 s          50.250 s
          | Preparation time                           :        0.171 s           0.467 s
          | Grid partitioning                          :        0.155 s           0.155 s
          | Preloading free-atom quantities on grid    :        0.013 s           0.013 s
          | Free-atom superposition energy             :        0.074 s           0.074 s
          | Total time for integrations                :       21.233 s          21.234 s
          | Total time for solution of K.-S. equations :        1.185 s           1.184 s
          | Total time for density & force components  :       18.350 s          18.340 s
          | Total time for mixing                      :        0.235 s           0.238 s
          | Total time for Hartree multipole update    :        0.086 s           0.087 s
          | Total time for Hartree multipole sum       :        8.036 s           8.033 s
          | Total time for total energy evaluation     :        0.009 s           0.024 s
          | Total time for scaled ZORA corrections     :        0.000 s           0.000 s
          | Total time for TS (2009) vdW correction    :        0.063 s           0.066 s

          Have a nice day.
------------------------------------------------------------
