  MPI-parallelism will be employed.
------------------------------------------------------------
          Invoking FHI-aims ...
          Version 081213
          Compiled on 2013/08/29 at 17:41:06 on host generoso.

          When using FHI-aims, please cite the following reference:

          Volker Blum, Ralf Gehrke, Felix Hanke, Paula Havu,
          Ville Havu, Xinguo Ren, Karsten Reuter, and Matthias Scheffler,
          'Ab Initio Molecular Simulations with Numeric Atom-Centered Orbitals: FHI-aims',
          Computer Physics Communications 180, 2175-2196 (2009)

          For any questions about FHI-aims, please visit the aimsclub website
          with its forums and wiki. Contributions to both the forums and the
          wiki are warmly encouraged - they are for you, and everyone is welcome there.

------------------------------------------------------------

  Date     :  20150727, Time     :  124413.626
  Time zero on CPU 1             :   0.429920000000000E-01  s.
  Internal wall clock time zero  :           207233053.626  s.

  Using        8 parallel tasks.
  Task        0 on host gen59 reporting.
  Task        1 on host gen59 reporting.
  Task        2 on host gen59 reporting.
  Task        3 on host gen59 reporting.
  Task        4 on host gen59 reporting.
  Task        5 on host gen59 reporting.
  Task        6 on host gen59 reporting.
  Task        7 on host gen59 reporting.

  Performing system and environment tests:
  | Environment variable OMP_NUM_THREADS correctly set to 1.
  | Checking for scalapack...
  | No scalapack compiled in.

  Obtaining array dimensions for all initial allocations:
  
  -----------------------------------------------------------------------
  Parsing control.in (first pass over file, find array dimensions only).
  The contents of control.in will be repeated verbatim below
  unless switched off by setting 'verbatim_writeout .false.' .
  in the first line of control.in .
  -----------------------------------------------------------------------
  
  #########################################################################################
  #
  #  Volker Blum, FHI 2008 : Test run input file control.in
  #
  #########################################################################################
  #
  #  Physical model
  #
    xc                 rpbe
    spin               none
    relativistic       atomic_zora scalar
    charge             0.
   vdw_correction_hirshfeld
  #
  #  SCF convergence
  #
    occupation_type    gaussian 0.01
    mixer              pulay
      n_max_pulay        10
      charge_mix_param   0.1
    sc_accuracy_rho    5E-5
    sc_accuracy_eev    5E-3
    sc_accuracy_etot   5E-6
    sc_iter_limit      3000
  #
  #  Eigenvalue solver
  #
    KS_method          lapack
      empty_states       8
      basis_threshold    0.e-5
  #
  #  Efficiency
  #
  #   all previous settings are now default, except stratmann still
  #   undecided. Continue to handle stratmann with care, if at all.
  #
  #  partition_type stratmann
    partition_type rho_r2
  #  hartree_partition_type stratmann
  #
  #  Oprions for large clusters (100's of atoms: memory saving / better scaling)
  #
  # for periodic systems:
  #
    density_update_method orbital
    packed_matrix_format none
  #  k_grid 6 6 6
  #  output k_eigenvalue 1
  #  distributed_spline_storage .true.
  #
  #  Relaxation
  #
  #  relax_geometry   bfgs 5.e-3
    sc_accuracy_forces 5.E-4
    final_forces_cleaned .true.
  #
  #  Output options
  #
  #  output mulliken
    output Hirshfeld
  #  output dipole
  
  #harmonic_length_scale 0.001
  
  ################################################################################
  #
  #  FHI-aims code project
  #  VB, Fritz-Haber Institut, 2007
  #
  #  Suggested "safe" defaults for H atom (to be pasted into control.in file)
  #  Basis constructed for a non-relativistic H2 molecule using the
  #  PW-LDA functional.
  #
  ################################################################################
    species        H
  #     global species definitions
      nucleus             1
      cut_pot             4.0  2.0  1.0
      cut_free_atom       finite 8.0
      logarithmic         0.00010000 100.00  1.0123
      basis_dep_cutoff    1d-4  # 1d-4 is safe default - please check 5d-4 if you wish!
      radial_base         24 7.0
      radial_multiplier   2
      angular_grids       specified
        division   0.2783  110
        division   0.3822  194
        division   0.5626  302
  #      division   0.5922  434
  #      division   0.6227  590
  #      division   0.7206  770
        outer_grid  302
      l_hartree           4
  ################################################################################
  #
  #  Definition of "minimal" basis
  #
  ################################################################################
  #     valence basis states
      valence      1  s   1.
  #     ion occupancy
      ion_occ      1  s   0.5
  ################################################################################
  #
  #  Suggested additional basis functions. For production calculations,
  #  uncomment them one after another (the most important basis functions are
  #  listed first).
  #
  ################################################################################
  #  "First tier" - improvements: -1014.90 meV to -62.69 meV
       hydro 2 s 2.1
       hydro 2 p 3.5
  #  "Second tier" - improvements: -12.89 meV to -1.83 meV
       hydro 1 s 0.85
       hydro 2 p 3.7
       hydro 2 s 1.2
       hydro 3 d 7
  #  "Third tier" - improvements: -0.25 meV to -0.12 meV
  #     hydro 4 f 11.2
  #     hydro 3 p 4.8
  #     hydro 4 d 9
  #     hydro 3 s 3.2
  
  ################################################################################
  #
  #  FHI-aims code project
  #  VB, Fritz-Haber Institut, 2007
  #
  #  Suggested "safe" defaults for O atom (to be pasted into control.in file)
  #  All values have been tested for a non-relativistic, non-spinpolarized O2
  #  molecule using the PW-LDA functional. Validity for PBE is expected.
  #
  #  Constructed for dimers: 1.0 A, 1.208 A, 1.5 A, 2.0 A, 3.0 A
  #
  ################################################################################
    species        O
  #     global species definitions
      nucleus             8
      mass                15.9994
      l_hartree           4
      cut_pot             4.0  2.0  1.0
      cut_free_atom       finite 8.0
      basis_dep_cutoff    1d-4  # 1d-4 is safe default - please check 5d-4 if you wish!
      logarithmic         0.00010000 100.00  1.0123
      radial_base         36 7.0
      radial_multiplier   2
       angular_grids specified
        division   0.4087  110
        division   0.5181  194
        division   0.6184  302
  #      division   0.7315  434
  #      division   0.7934  590
  #      division   0.9656  770
  #      division   1.4041  974
  #      outer_grid 974
        outer_grid 302
  ################################################################################
  #
  #  Definition of "minimal" basis
  #
  ################################################################################
  #     valence basis states
      valence      2  s   2.
      valence      2  p   4.
  #     ion occupancy
      ion_occ      2  s   1.
      ion_occ      2  p   3.
  ################################################################################
  #
  #  Suggested additional basis functions. For production calculations,
  #  uncomment them one after another (the most important basis functions are
  #  listed first).
  #
  ################################################################################
  #  "First tier" - improvements: -699.05 meV to -159.38 meV
       hydro 2 p 1.8
       hydro 3 d 7.6
       hydro 3 s 6.4
  #  "Second tier" - improvements: -49.91 meV to -5.39 meV
       hydro 4 f 11.6
       hydro 3 p 6.2
       hydro 3 d 5.6
       hydro 5 g 17.6
       hydro 1 s 0.75
  #  "Third tier" - improvements: -2.83 meV to -0.50 meV
  #     ionic 2 p auto
  #     hydro 4 f 10.8
  #     hydro 4 d 4.7
  #     hydro 2 s 6.8
  #  "Fourth tier" - improvements: -0.40 meV to -0.12 meV
  #     hydro 3 p 5
  #     hydro 3 s 3.3
  #     hydro 5 g 15.6
  #     hydro 4 f 17.6
  #     hydro 4 d 14
  # Further basis functions - -0.08 meV and below
  #     hydro 3 s 2.1
  #     hydro 4 d 11.6
  #     hydro 3 p 16
  #     hydro 2 s 17.2
  
  
  -----------------------------------------------------------------------
  Completed first pass over input file control.in .
  -----------------------------------------------------------------------
  
  
  -----------------------------------------------------------------------
  Parsing geometry.in (first pass over file, find array dimensions only).
  The contents of geometry.in will be repeated verbatim below
  unless switched off by setting 'verbatim_writeout .false.' .
  in the first line of geometry.in .
  -----------------------------------------------------------------------
  
  atom      -4.053030000      0.065001000     -1.525160000  O
  atom      -4.566710000      0.974813000     -1.912820000  H
  atom      -3.067820000      0.330172000     -1.477310000  H
  atom      -4.370360000     -0.049164000     -0.572274000  H
  atom      -5.293160000      2.192130000     -2.328800000  O
  atom      -4.829300000      2.988660000     -1.973850000  H
  atom      -5.428570000      2.328640000     -3.235170000  H
  atom      -1.645860000      0.870179000     -1.502250000  O
  atom      -1.568890000      1.501730000     -0.721051000  H
  atom      -0.824432000      0.282220000     -1.377720000  H
  atom      -5.628340000      3.730740000      1.385610000  O
  atom      -6.090650000      4.418470000      1.860350000  H
  atom      -5.158540000      4.200260000      0.615875000  H
  
  -----------------------------------------------------------------------
  Completed first pass over input file geometry.in .
  -----------------------------------------------------------------------
  
 
  Basic array size parameters: 
  | Number of species                 :        2
  | Number of atoms                   :       13
  | Max. basis fn. angular momentum   :        4
  | Max. atomic/ionic basis occupied n:        2
  | Max. number of basis fn. types    :        2
  | Max. radial fns per species/type  :        8
  | Max. logarithmic grid size        :     1301
  | Max. radial integration grid size :       73
  | Max. angular integration grid size:      302
  | Max. angular grid division number :        8
  | Radial grid for Hartree potential :     1301
  | Number of spin channels           :        1

------------------------------------------------------------
          Reading file control.in.
------------------------------------------------------------
  XC: Using RPBE gradient-corrected functionals.
  Spin treatment: No spin polarisation.
  Scalar relativistic treatment of kinetic energy: on-site free-atom approximation to ZORA.
  Charge =   0.000000E+00: Neutral system requested explicitly.
  Using non-empirical van der Waals correction (Hirshfeld partitioning):
  Occupation type: Gaussian broadening, width =   0.100000E-01 eV.
  Using pulay charge density mixing.
  Pulay mixing - number of memorized iterations:   10
  Charge density mixing - mixing parameter:     0.1000
  Convergence accuracy of self-consistent charge density: 0.5000E-04
  Convergence accuracy of sum of eigenvalues: 0.5000E-02
  Convergence accuracy of total energy: 0.5000E-05
  Maximum number of s.-c. iterations  :  3000
  Kohn-Sham eigenvalues and eigenfunctions calculated by lapack diagonalisation (D&C).
  Number of empty states per atom:        8
  Threshold for basis singularities: 0.0000E+00
  Partition function in integrals calculations: rho / r^2
 Using packed matrix format           0
  Convergence accuracy of forces: 0.5000E-03
  Cleaning forces before final output.
  Hirshfeld charge analysis will be performed.
 
  Reading configuration options for species H                   .
  | Found nuclear charge :   1.0000
  | Found cutoff potl. onset [A], width [A], scale factor :    4.00000    2.00000    1.00000
  | Found cutoff specification for free atom: Cutoff potential begins at    8.00000 A.
  | Found logarithmic grid data [bohr] : 0.1000E-03 0.1000E+03 0.1012E+01
  | Threshold for basis-dependent cutoff potential is   0.100000E-03
  | Found data for basic radial integration grid :    24 points, outermost radius =    7.000 A
  | Found multiplier for basic radial grid :   2
  | Found angular grid specification: user-specified.
  | Specified grid contains     4 separate shells.
  | Check grid settings after all constraints further below.
  | Found l_max for Hartree potential  :   4
  | Found free-atom valence shell :  1 s   1.000
  | No ionic wave fns used. Skipping ion_occ.
  | Found hydrogenic basis function :  2 s   2.100
  | Found hydrogenic basis function :  2 p   3.500
  | Found hydrogenic basis function :  1 s   0.850
  | Found hydrogenic basis function :  2 p   3.700
  | Found hydrogenic basis function :  2 s   1.200
  | Found hydrogenic basis function :  3 d   7.000
  Species H                   : Missing cutoff potential type.
  Defaulting to exp(1/x)/(1-x)^2 type cutoff potential.
  Species H : On-site basis accuracy parameter (for Gram-Schmidt orthonormalisation) not specified.
  Using default value basis_acc =  0.1000000E-03.
  Species H                   : Using default innermost maximum threshold i_radial=  2 for radial functions.
  Species H                   : Basic radial grid will be enhanced according to radial_multiplier =   2, to contain    49 grid points.
 
  Reading configuration options for species O                   .
  | Found nuclear charge :   8.0000
  | Found atomic mass :    15.9994000000000      amu
  | Found l_max for Hartree potential  :   4
  | Found cutoff potl. onset [A], width [A], scale factor :    4.00000    2.00000    1.00000
  | Found cutoff specification for free atom: Cutoff potential begins at    8.00000 A.
  | Threshold for basis-dependent cutoff potential is   0.100000E-03
  | Found logarithmic grid data [bohr] : 0.1000E-03 0.1000E+03 0.1012E+01
  | Found data for basic radial integration grid :    36 points, outermost radius =    7.000 A
  | Found multiplier for basic radial grid :   2
  | Found angular grid specification: user-specified.
  | Specified grid contains     4 separate shells.
  | Check grid settings after all constraints further below.
  | Found free-atom valence shell :  2 s   2.000
  | Found free-atom valence shell :  2 p   4.000
  | No ionic wave fns used. Skipping ion_occ.
  | No ionic wave fns used. Skipping ion_occ.
  | Found hydrogenic basis function :  2 p   1.800
  | Found hydrogenic basis function :  3 d   7.600
  | Found hydrogenic basis function :  3 s   6.400
  | Found hydrogenic basis function :  4 f  11.600
  | Found hydrogenic basis function :  3 p   6.200
  | Found hydrogenic basis function :  3 d   5.600
  | Found hydrogenic basis function :  5 g  17.600
  | Found hydrogenic basis function :  1 s   0.750
  Species O                   : Missing cutoff potential type.
  Defaulting to exp(1/x)/(1-x)^2 type cutoff potential.
  Species O : On-site basis accuracy parameter (for Gram-Schmidt orthonormalisation) not specified.
  Using default value basis_acc =  0.1000000E-03.
  Species O                   : Using default innermost maximum threshold i_radial=  2 for radial functions.
  Species O                   : Basic radial grid will be enhanced according to radial_multiplier =   2, to contain    73 grid points.
 
  Finished reading input file 'control.in'. Consistency checks are next.
 
  Target number of points in a grid batch is not set. Defaulting to  100
  Method for grid partitioning is not set. Defaulting to parallel hash+maxmin partitioning.
  Batch size limit is not set. Defaulting to    200
  By default, will store active basis functions for each batch.
  If in need of memory, prune_basis_once .false. can be used to disable this option.
  communication_type for Hartree potential was not specified.
  Defaulting to calc_hartree .
  Pulay mixer: Number of initial linear mixing iterations not set.
  Defaulting to    0 iterations.
  Work space size for distributed Hartree potential not set.
  Defaulting to   0.200000E+03 MB.
  Algorithm-dependent basis array size parameters:
  | n_max_pulay                         :       10
  Geometry relaxation not requested: no relaxation will be performed.
  Handling of forces: Unphysical translation and rotation will be removed from forces.
  No accuracy limit for integral partition fn. given. Defaulting to 0.1000E-14.
  No threshold value for u(r) in integrations given. Defaulting to 0.1000E-05.
  No accuracy for occupation numbers given. Defaulting to 0.1000E-07.
  No threshold value for occupation numbers given. Defaulting to 0.0000E+00.
  No accuracy for fermi level given. Defaulting to 0.1000E-19.
  Maximum # of iterations to find E_F not set. Defaulting to  200.
  Will not use alltoall communication since running on < 1024 CPUs.
  Partitioning for Hartree potential was not defined. Using partition_type for integrals.
  | Reporting present value of keyword multip_moments_threshold  :       0.10000000E-09
  | This value may affect high angular momentum components of the Hartree potential in periodic systems.
  No q(lm)/r^(l+1) cutoff set for long-range Hartree potential.
  | Using default value of  0.100000E-09 .
  | Verify using the multipole_threshold keyword.
  Defaulting to new monopole extrapolation.
  Density update method: Loop over occupied states selected for charge density update.
------------------------------------------------------------


------------------------------------------------------------
          Reading geometry description geometry.in.
------------------------------------------------------------
  Input structure read successfully.
  The structure contains       13 atoms,  and a total of         41.000 electrons.

  Input geometry:
  | No unit cell requested.
  | Atomic structure:
  |       Atom                x [A]            y [A]            z [A]
  |    1: Species O             -4.053030         0.065001        -1.525160
  |    2: Species H             -4.566710         0.974813        -1.912820
  |    3: Species H             -3.067820         0.330172        -1.477310
  |    4: Species H             -4.370360        -0.049164        -0.572274
  |    5: Species O             -5.293160         2.192130        -2.328800
  |    6: Species H             -4.829300         2.988660        -1.973850
  |    7: Species H             -5.428570         2.328640        -3.235170
  |    8: Species O             -1.645860         0.870179        -1.502250
  |    9: Species H             -1.568890         1.501730        -0.721051
  |   10: Species H             -0.824432         0.282220        -1.377720
  |   11: Species O             -5.628340         3.730740         1.385610
  |   12: Species H             -6.090650         4.418470         1.860350
  |   13: Species H             -5.158540         4.200260         0.615875
  |

  | The smallest distance between any two atoms is         0.92654057 AA.
  |
  | The first atom of this pair is atom number                      5 .
  | The second atom of this pair is atom number                     7 .

  Structure-dependent array size parameters: 
  | Maximum number of distinct radial functions  :       18
  | Maximum number of basis functions            :      291
  | Number of Kohn-Sham states (occupied + empty):       73
------------------------------------------------------------

------------------------------------------------------------
          Preparing all fixed parts of the calculation.
------------------------------------------------------------
  Determining machine precision:
    2.225073858507201E-308
  Setting up grids for atomic and cluster calculations.

  Creating wave function, potential, and density for free atoms.

  Species: H

  List of occupied orbitals and eigenvalues:
    n    l              occ      energy [Ha]    energy [eV]
    1    0           1.0000        -0.241408        -6.5691


  Species: O

  List of occupied orbitals and eigenvalues:
    n    l              occ      energy [Ha]    energy [eV]
    1    0           2.0000       -18.944147      -515.4965
    2    0           2.0000        -0.883529       -24.0421
    2    1           4.0000        -0.330176        -8.9845

  Creating fixed part of basis set: Ionic, confined, hydrogenic.
 
  H                    hydrogenic:
 
  List of hydrogenic basis orbitals: 
    n    l      effective z      eigenvalue [eV]  inner max. [A]     outer max. [A]     outer radius [A]   
    2    0         2.100000       -14.9965           0.193241           1.317192           5.372934
    2    1         3.500000       -41.6672           0.602363           0.602363           4.056010
    1    0         0.850000        -9.8292           0.624864           0.624864           5.372934
    2    1         3.700000       -46.5653           0.573616           0.573616           3.909951
    2    0         1.200000        -4.5995           0.334977           2.228160           5.505921
    3    2         7.000000       -74.0753           0.680692           0.680692           3.769152
 
 
  O                    hydrogenic:
 
  List of hydrogenic basis orbitals: 
    n    l      effective z      eigenvalue [eV]  inner max. [A]     outer max. [A]     outer radius [A]   
    2    1         1.800000       -11.0118           1.178546           1.178546           5.432516
    3    2         7.600000       -87.3182           0.624117           0.624117           3.541422
    3    0         6.400000       -61.9209           0.061166           1.081887           4.306510
    4    3        11.600000      -114.4238           0.731621           0.731621           3.584982
    3    1         6.200000       -58.1113           0.255677           1.030255           4.306510
    3    2         5.600000       -47.4081           0.847222           0.847222           4.413102
    5    4        17.600000      -168.5799           0.749730           0.749730           3.372413
    1    0         0.750000        -7.6499           0.705275           0.705275           5.366508
 

  Adding cutoff potential to free-atom effective potential.
  Creating atomic-like basis functions for current effective potential.

  Species H                   :

  List of atomic basis orbitals and eigenvalues:
    n    l      energy [Ha]    energy [eV]    outer radius [A]
    1    0        -0.241374        -6.5681       5.372934


  Species O                   :

  List of atomic basis orbitals and eigenvalues:
    n    l      energy [Ha]    energy [eV]    outer radius [A]
    1    0       -18.944147      -515.4965       1.415745
    2    0        -0.883529       -24.0421       5.048305
    2    1        -0.330173        -8.9845       5.301302

  Assembling full basis from fixed parts.
  | Species H :   atomic orbital   1 s accepted.
  | Species H :    hydro orbital   2 s accepted.
  | Species H :    hydro orbital   1 s accepted.
  | Species H :    hydro orbital   2 s accepted.
  | Species H :    hydro orbital   2 p accepted.
  | Species H :    hydro orbital   2 p accepted.
  | Species H :    hydro orbital   3 d accepted.
  | Species O :   atomic orbital   1 s accepted.
  | Species O :    hydro orbital   3 s accepted.
  | Species O :   atomic orbital   2 s accepted.
  | Species O :    hydro orbital   1 s accepted.
  | Species O :    hydro orbital   3 p accepted.
  | Species O :   atomic orbital   2 p accepted.
  | Species O :    hydro orbital   2 p accepted.
  | Species O :    hydro orbital   3 d accepted.
  | Species O :    hydro orbital   3 d accepted.
  | Species O :    hydro orbital   4 f accepted.
  | Species O :    hydro orbital   5 g accepted.
 
  Basis size parameters after reduction:
  | Total number of radial functions:       18
  | Total number of basis functions :      291
 
  Testing on-site integration grid accuracy.
  |  Species  Function  <phi|h_atom|phi> (log., in eV)  <phi|h_atom|phi> (rad., in eV)
           1        1                 -6.5683835025                 -6.5684759159
           1        2                 13.3711789951                 13.3708738703
           1        3                 23.6590910787                 23.6532055418
           1        4                 16.2963827186                 16.1870710655 ***
           1        5                 28.7627214838                 28.7627215090
           1        6                 59.5965249172                 59.5965950857
           1        7                 60.2220506392                 60.2220503827
           2        8               -515.4964576505               -515.4964530710
           2        9                 15.3030791347                 15.3030722972
           2       10                -21.7296094581                -21.7296135470
           2       11                 14.2969371730                 14.2969701621
           2       12                 21.0679693190                 21.0679697493
           2       13                 -2.3833606469                 -2.3833613176
           2       14                 13.7067136422                 13.7066766629
           2       15                 45.8013116808                 45.8013116965
           2       16                 52.2309815402                 52.2309831494
           2       17                 85.4120732416                 85.4120732763
           2       18                142.1019167745                142.1019167817
 * Note: Onsite integrals marked "***" above are less accurate than
 * onsite_accuracy_threshold =    0.03000 eV. Usually, this is harmless.
 * When in doubt, tighten the "radial" and/or "radial_multiplier" flags to check.

  Preparing densities etc. for the partition functions (integrals / Hartree potential).

  Preparations completed.
  max(cpu_time)          :      0.169 s.
  Wall clock time (cpu1) :      0.519 s.
------------------------------------------------------------

------------------------------------------------------------
          Begin self-consistency loop: Initialization.

          Date     :  20150727, Time     :  124414.182
------------------------------------------------------------

  Initializing index lists of integration centers etc. from given atomic structure:
  | Number of centers in hartree potential         :        13
  | Number of centers in hartree multipole         :        13
  | Number of centers in electron density summation:        13
  | Number of centers in basis integrals           :        13
  | Number of centers in integrals                 :        13
  Partitioning the integration grid into batches with parallel hashing+maxmin method.
  | Number of batches:     1723
  | Maximal batch size:     200
  | Minimal batch size:      49
  | Average batch size:      98.063
  | Standard deviation of batch sizes:      30.157

  Integration load balanced across     8 MPI tasks.
  Work distribution over tasks is as follows:
  Task     0 has      21137 integration points.
  Task     1 has      21103 integration points.
  Task     2 has      21106 integration points.
  Task     3 has      21092 integration points.
  Task     4 has      21115 integration points.
  Task     5 has      21137 integration points.
  Task     6 has      21126 integration points.
  Task     7 has      21146 integration points.
  Initializing partition tables, free-atom densities, potentials, etc. across the integration grid (initialize_grid_storage).
  | Net number of integration points:   168962
  | of which are non-zero points    :   168427
  Obtaining max. number of non-zero basis functions in each batch (get_n_compute_maxes).
  | Maximal number of non-zero basis functions:      287 in task     0
  | Maximal number of non-zero basis functions:      288 in task     1
  | Maximal number of non-zero basis functions:      288 in task     2
  | Maximal number of non-zero basis functions:      288 in task     3
  | Maximal number of non-zero basis functions:      288 in task     4
  | Maximal number of non-zero basis functions:      289 in task     5
  | Maximal number of non-zero basis functions:      282 in task     6
  | Maximal number of non-zero basis functions:      287 in task     7
  Integrating Hamiltonian matrix: batch-based integration.
  Time summed over all CPUs for integration: real work        4.642 s, elapsed        4.728 s
  Integrating overlap matrix.
  Time summed over all CPUs for integration: real work        2.449 s, elapsed        2.511 s

  Updating Kohn-Sham eigenvalues, eigenvectors, occupation numbers, and Fermi level.
  Solving generalized eigenproblem
  Updating Kohn-Sham eigenvalues and eigenfunctions.
  Transforming overlap matrix and checking for singularities.
  Overlap matrix is nonsingular:
  | Lowest eigenvalue:  0.253129E-03
  Solving real generalised eigenvalue problem by standard LAPACK (fast)
  Determining occupation numbers for Kohn-Sham eigenstates.
  | Chemical potential (Fermi level) in eV                 : -.27084788E+01
  | Error in electron count due to remaining E_F inaccuracy: 0.00000000E+00
  | Maximum occupation number of highest empty state:  0.00E+00

  Writing Kohn-Sham eigenvalues.

  State    Occupation    Eigenvalue [Ha]    Eigenvalue [eV]
      1       2.00000         -19.065144         -518.78895
      2       2.00000         -19.064862         -518.78128
      3       2.00000         -19.044494         -518.22706
      4       2.00000         -19.042477         -518.17215
      5       2.00000          -1.129176          -30.72644
      6       2.00000          -1.114489          -30.32678
      7       2.00000          -1.089072          -29.63516
      8       2.00000          -1.081722          -29.43517
      9       2.00000          -0.650912          -17.71223
     10       2.00000          -0.639869          -17.41172
     11       2.00000          -0.622199          -16.93090
     12       2.00000          -0.618221          -16.82266
     13       2.00000          -0.602387          -16.39177
     14       2.00000          -0.532078          -14.47857
     15       2.00000          -0.508543          -13.83815
     16       2.00000          -0.501479          -13.64594
     17       2.00000          -0.485319          -13.20621
     18       2.00000          -0.452607          -12.31606
     19       2.00000          -0.435799          -11.85869
     20       2.00000          -0.430131          -11.70445
     21       1.00000          -0.099535           -2.70848
     22       0.00000          -0.074485           -2.02685
     23       0.00000          -0.055495           -1.51010
     24       0.00000          -0.045645           -1.24206
     25       0.00000          -0.018683           -0.50840
     26       0.00000          -0.005950           -0.16190
     27       0.00000           0.025752            0.70074
     28       0.00000           0.034982            0.95191
     29       0.00000           0.053915            1.46710
     30       0.00000           0.070067            1.90663
     31       0.00000           0.077476            2.10823
     32       0.00000           0.090338            2.45821
     33       0.00000           0.093990            2.55761
     34       0.00000           0.096862            2.63576
     35       0.00000           0.104585            2.84590
     36       0.00000           0.108804            2.96071
     37       0.00000           0.120666            3.28349
     38       0.00000           0.128920            3.50810
     39       0.00000           0.137165            3.73245
     40       0.00000           0.147910            4.02482
     41       0.00000           0.164331            4.47167
     42       0.00000           0.174652            4.75253
     43       0.00000           0.182169            4.95707
     44       0.00000           0.209212            5.69294
     45       0.00000           0.223096            6.07076
     46       0.00000           0.232401            6.32396
     47       0.00000           0.258362            7.03038
     48       0.00000           0.281518            7.66050
     49       0.00000           0.293525            7.98723
     50       0.00000           0.299682            8.15477
     51       0.00000           0.328015            8.92573
     52       0.00000           0.350967            9.55031
     53       0.00000           0.362630            9.86766
     54       0.00000           0.368644           10.03131
     55       0.00000           0.378067           10.28773
     56       0.00000           0.394820           10.74361
     57       0.00000           0.412491           11.22444
     58       0.00000           0.423415           11.52171
     59       0.00000           0.435151           11.84105
     60       0.00000           0.441312           12.00871
     61       0.00000           0.454493           12.36738
     62       0.00000           0.467312           12.71620
     63       0.00000           0.491373           13.37093
     64       0.00000           0.507503           13.80985
     65       0.00000           0.533172           14.50835
     66       0.00000           0.541198           14.72675
     67       0.00000           0.555359           15.11208
     68       0.00000           0.590910           16.07948
     69       0.00000           0.602427           16.39288
     70       0.00000           0.664484           18.08152
     71       0.00000           0.727445           19.79479
     72       0.00000           0.735191           20.00557
     73       0.00000           0.755032           20.54545

  Highest occupied state (VBM) at     -2.70847879 eV
  | Occupation number:      1.00000000

  Lowest unoccupied state (CBM) at    -2.70847879 eV
  | Occupation number:      1.00000000

  Overall HOMO-LUMO gap:      0.00000000 eV.
  Calculating total energy contributions from superposition of free atom densities.

  Total energy components:
  | Sum of eigenvalues            :        -174.32149214 Ha       -4743.52914931 eV
  | XC energy correction          :         -36.82221049 Ha       -1001.98332773 eV
  | XC potential correction       :          47.06098515 Ha        1280.59456187 eV
  | Free-atom electrostatic energy:        -142.83462956 Ha       -3886.72802491 eV
  | Hartree energy correction     :           0.00000000 Ha           0.00000000 eV
  | van der Waals energy corr.    :           0.00000000 Ha           0.00000000 eV
  | Entropy correction            :          -0.00010367 Ha          -0.00282095 eV
  | ---------------------------
  | Total energy                  :        -306.91734704 Ha       -8351.64594009 eV
  | Total energy, T -> 0          :        -306.91745071 Ha       -8351.64876103 eV  <-- do not rely on this value for anything but (periodic) metals
  | Electronic free energy        :        -306.91755438 Ha       -8351.65158198 eV

  Derived energy quantities:
  | Kinetic energy                :         304.02831133 Ha        8273.03127855 eV
  | Electrostatic energy          :        -574.12344789 Ha      -15622.69389090 eV
  | Energy correction for multipole
  | error in Hartree potential    :           0.00000000 Ha           0.00000000 eV
  | Sum of eigenvalues per atom                           :        -364.88685764 eV
  | Total energy (T->0) per atom                          :        -642.43452008 eV  <-- do not rely on this value for anything but (periodic) metals
  | Electronic free energy per atom                       :        -642.43473708 eV
  Initialize hartree_potential_storage
  Max. number of atoms included in rho_multipole:           13

  End scf initialization - timings             :  max(cpu_time)    wall_clock(cpu1)
  | Time for scf. initialization               :        1.334 s           1.334 s
  | Boundary condition initialization          :        0.000 s           0.000 s
  | Integration                                :        0.908 s           0.908 s
  | Solution of K.-S. eqns.                    :        0.136 s           0.137 s
  | Grid partitioning                          :        0.126 s           0.126 s
  | Preloading free-atom quantities on grid    :        0.014 s           0.013 s
  | Free-atom superposition energy             :        0.051 s           0.051 s
  | Total energy evaluation                    :        0.000 s           0.001 s
------------------------------------------------------------

------------------------------------------------------------
          Begin self-consistency iteration #    1

  Date     :  20150727, Time     :  124415.516
------------------------------------------------------------
  Evaluating new KS density.
  Integration grid: deviation in total charge (<rho> - N_e) =   0.000000E+00
  Pulay mixing of updated and previous charge densities.

  Evaluating partitioned Hartree potential by multipole expansion.
  | Analytical far-field extrapolation by fixed multipoles:
  | Hartree multipole sum: apparent total charge =  -0.885678E-06
  Summing up the Hartree potential.
  Time summed over all CPUs for potential: real work        1.917 s, elapsed        1.925 s
  | RMS charge density error from multipole expansion :   0.148767E-02

  Integrating Hamiltonian matrix: batch-based integration.
  Time summed over all CPUs for integration: real work        4.637 s, elapsed        4.713 s

  Updating Kohn-Sham eigenvalues, eigenvectors, occupation numbers, and Fermi level.
  Solving generalized eigenproblem
  Updating Kohn-Sham eigenvalues and eigenfunctions.
  Solving real generalised eigenvalue problem by standard LAPACK (fast)
  Determining occupation numbers for Kohn-Sham eigenstates.
  | Chemical potential (Fermi level) in eV                 : -.25267213E+01
  | Error in electron count due to remaining E_F inaccuracy: -.35463330E-08
  | Maximum occupation number of highest empty state:  0.00E+00

  Writing Kohn-Sham eigenvalues.

  State    Occupation    Eigenvalue [Ha]    Eigenvalue [eV]
      1       2.00000         -19.011227         -517.32180
      2       2.00000         -18.994731         -516.87293
      3       2.00000         -18.976909         -516.38796
      4       2.00000         -18.961609         -515.97163
      5       2.00000          -1.101921          -29.98479
      6       2.00000          -1.083204          -29.47548
      7       2.00000          -1.050982          -28.59868
      8       2.00000          -1.046493          -28.47653
      9       2.00000          -0.622279          -16.93307
     10       2.00000          -0.617826          -16.81191
     11       2.00000          -0.599588          -16.31561
     12       2.00000          -0.581478          -15.82282
     13       2.00000          -0.576562          -15.68906
     14       2.00000          -0.502573          -13.67570
     15       2.00000          -0.477726          -12.99958
     16       2.00000          -0.459048          -12.49132
     17       2.00000          -0.457089          -12.43803
     18       2.00000          -0.418645          -11.39191
     19       2.00000          -0.403498          -10.97974
     20       2.00000          -0.385810          -10.49843
     21       1.00000          -0.092855           -2.52672
     22       0.00000          -0.067333           -1.83222
     23       0.00000          -0.048439           -1.31809
     24       0.00000          -0.039996           -1.08834
     25       0.00000          -0.012795           -0.34816
     26       0.00000           0.000873            0.02376
     27       0.00000           0.034173            0.92989
     28       0.00000           0.041416            1.12698
     29       0.00000           0.057633            1.56829
     30       0.00000           0.076267            2.07534
     31       0.00000           0.085272            2.32038
     32       0.00000           0.096843            2.63524
     33       0.00000           0.102069            2.77744
     34       0.00000           0.104141            2.83381
     35       0.00000           0.112175            3.05244
     36       0.00000           0.116343            3.16584
     37       0.00000           0.127985            3.48266
     38       0.00000           0.135897            3.69796
     39       0.00000           0.150011            4.08200
     40       0.00000           0.156311            4.25343
     41       0.00000           0.170664            4.64399
     42       0.00000           0.179570            4.88636
     43       0.00000           0.191345            5.20676
     44       0.00000           0.214921            5.84828
     45       0.00000           0.229152            6.23553
     46       0.00000           0.238862            6.49976
     47       0.00000           0.264122            7.18713
     48       0.00000           0.287379            7.81999
     49       0.00000           0.298616            8.12576
     50       0.00000           0.305062            8.30116
     51       0.00000           0.336279            9.15062
     52       0.00000           0.356688            9.70598
     53       0.00000           0.370501           10.08184
     54       0.00000           0.374997           10.20419
     55       0.00000           0.385068           10.47824
     56       0.00000           0.401276           10.91927
     57       0.00000           0.420755           11.44932
     58       0.00000           0.429944           11.69938
     59       0.00000           0.440827           11.99551
     60       0.00000           0.451579           12.28809
     61       0.00000           0.462436           12.58352
     62       0.00000           0.474155           12.90241
     63       0.00000           0.500077           13.60779
     64       0.00000           0.519592           14.13882
     65       0.00000           0.539885           14.69102
     66       0.00000           0.550827           14.98876
     67       0.00000           0.564257           15.35421
     68       0.00000           0.598066           16.27421
     69       0.00000           0.611474           16.63905
     70       0.00000           0.674007           18.34066
     71       0.00000           0.740062           20.13812
     72       0.00000           0.742872           20.21459
     73       0.00000           0.765071           20.81865

  Highest occupied state (VBM) at    -10.49842579 eV
  | Occupation number:      2.00000000

  Lowest unoccupied state (CBM) at    -2.52672129 eV
  | Occupation number:      1.00000000

  Overall HOMO-LUMO gap:      7.97170450 eV.

  Total energy components:
  | Sum of eigenvalues            :        -172.75125060 Ha       -4700.80070297 eV
  | XC energy correction          :         -36.99496466 Ha       -1006.68420800 eV
  | XC potential correction       :          47.28670355 Ha        1286.73667207 eV
  | Free-atom electrostatic energy:        -142.83462956 Ha       -3886.72802491 eV
  | Hartree energy correction     :          -1.52908076 Ha         -41.60840451 eV
  | van der Waals energy corr.    :           0.00000000 Ha           0.00000000 eV
  | Entropy correction            :          -0.00010367 Ha          -0.00282095 eV
  | ---------------------------
  | Total energy                  :        -306.82322203 Ha       -8349.08466831 eV
  | Total energy, T -> 0          :        -306.82332570 Ha       -8349.08748926 eV  <-- do not rely on this value for anything but (periodic) metals
  | Electronic free energy        :        -306.82342937 Ha       -8349.09031021 eV

  Derived energy quantities:
  | Kinetic energy                :         305.08745791 Ha        8301.85212339 eV
  | Electrostatic energy          :        -574.91571528 Ha      -15644.25258370 eV
  | Energy correction for multipole
  | error in Hartree potential    :           0.00021185 Ha           0.00576479 eV
  | Sum of eigenvalues per atom                           :        -361.60005407 eV
  | Total energy (T->0) per atom                          :        -642.23749917 eV  <-- do not rely on this value for anything but (periodic) metals
  | Electronic free energy per atom                       :        -642.23771617 eV

  Self-consistency convergence accuracy:
  | Change of charge density      : 0.5620E+00
  | Change of sum of eigenvalues  : 0.4273E+02 eV
  | Change of total energy        : 0.2561E+01 eV

  End self-consistency iteration #     1       :  max(cpu_time)    wall_clock(cpu1)
  | Time for this iteration                    :        1.303 s           1.303 s
  | Charge density update                      :        0.426 s           0.427 s
  | Density mixing                             :        0.002 s           0.003 s
  | Hartree multipole update                   :        0.005 s           0.004 s
  | Hartree multipole summation                :        0.241 s           0.242 s
  | Integration                                :        0.591 s           0.590 s
  | Solution of K.-S. eqns.                    :        0.036 s           0.036 s
  | Total energy evaluation                    :        0.000 s           0.001 s
------------------------------------------------------------

------------------------------------------------------------
          Begin self-consistency iteration #    2

  Date     :  20150727, Time     :  124416.819
------------------------------------------------------------
  Evaluating new KS density.
  Integration grid: deviation in total charge (<rho> - N_e) =  -3.546347E-09
  Pulay mixing of updated and previous charge densities.

  Evaluating partitioned Hartree potential by multipole expansion.
  | Analytical far-field extrapolation by fixed multipoles:
  | Hartree multipole sum: apparent total charge =  -0.335380E-05
  Summing up the Hartree potential.
  Time summed over all CPUs for potential: real work        1.917 s, elapsed        1.927 s
  | RMS charge density error from multipole expansion :   0.601785E-02

  Integrating Hamiltonian matrix: batch-based integration.
  Time summed over all CPUs for integration: real work        4.620 s, elapsed        4.700 s

  Updating Kohn-Sham eigenvalues, eigenvectors, occupation numbers, and Fermi level.
  Solving generalized eigenproblem
  Updating Kohn-Sham eigenvalues and eigenfunctions.
  Solving real generalised eigenvalue problem by standard LAPACK (fast)
  Determining occupation numbers for Kohn-Sham eigenstates.
  | Chemical potential (Fermi level) in eV                 : -.21084371E+01
  | Error in electron count due to remaining E_F inaccuracy: 0.00000000E+00
  | Maximum occupation number of highest empty state:  0.00E+00

  Highest occupied state (VBM) at     -2.10843705 eV
  | Occupation number:      1.00000000

  Lowest unoccupied state (CBM) at    -2.10843705 eV
  | Occupation number:      1.00000000

  Overall HOMO-LUMO gap:      0.00000000 eV.

  Total energy components:
  | Sum of eigenvalues            :        -169.02333816 Ha       -4599.35904404 eV
  | XC energy correction          :         -37.42710780 Ha       -1018.44342111 eV
  | XC potential correction       :          47.85005073 Ha        1302.06612888 eV
  | Free-atom electrostatic energy:        -142.83462956 Ha       -3886.72802491 eV
  | Hartree energy correction     :          -5.28278913 Ha        -143.75200635 eV
  | van der Waals energy corr.    :           0.00000000 Ha           0.00000000 eV
  | Entropy correction            :          -0.00010367 Ha          -0.00282095 eV
  | ---------------------------
  | Total energy                  :        -306.71781392 Ha       -8346.21636753 eV
  | Total energy, T -> 0          :        -306.71791759 Ha       -8346.21918847 eV  <-- do not rely on this value for anything but (periodic) metals
  | Electronic free energy        :        -306.71802125 Ha       -8346.22200942 eV

  Derived energy quantities:
  | Kinetic energy                :         307.28269069 Ha        8361.58744662 eV
  | Electrostatic energy          :        -576.57339681 Ha      -15689.36039304 eV
  | Energy correction for multipole
  | error in Hartree potential    :           0.00015929 Ha           0.00433439 eV
  | Sum of eigenvalues per atom                           :        -353.79684954 eV
  | Total energy (T->0) per atom                          :        -642.01686065 eV  <-- do not rely on this value for anything but (periodic) metals
  | Electronic free energy per atom                       :        -642.01707765 eV

  Self-consistency convergence accuracy:
  | Change of charge density      : 0.4271E+00
  | Change of sum of eigenvalues  : 0.1014E+03 eV
  | Change of total energy        : 0.2868E+01 eV

  End self-consistency iteration #     2       :  max(cpu_time)    wall_clock(cpu1)
  | Time for this iteration                    :        1.297 s           1.297 s
  | Charge density update                      :        0.421 s           0.421 s
  | Density mixing                             :        0.005 s           0.004 s
  | Hartree multipole update                   :        0.005 s           0.005 s
  | Hartree multipole summation                :        0.241 s           0.241 s
  | Integration                                :        0.589 s           0.589 s
  | Solution of K.-S. eqns.                    :        0.036 s           0.036 s
  | Total energy evaluation                    :        0.000 s           0.000 s
------------------------------------------------------------

------------------------------------------------------------
          Begin self-consistency iteration #    3

  Date     :  20150727, Time     :  124418.117
------------------------------------------------------------
  Evaluating new KS density.
  Integration grid: deviation in total charge (<rho> - N_e) =   1.421085E-14
  Pulay mixing of updated and previous charge densities.

  Evaluating partitioned Hartree potential by multipole expansion.
  | Analytical far-field extrapolation by fixed multipoles:
  | Hartree multipole sum: apparent total charge =  -0.367385E-05
  Summing up the Hartree potential.
  Time summed over all CPUs for potential: real work        1.917 s, elapsed        1.925 s
  | RMS charge density error from multipole expansion :   0.124212E-01

  Integrating Hamiltonian matrix: batch-based integration.
  Time summed over all CPUs for integration: real work        4.624 s, elapsed        4.701 s

  Updating Kohn-Sham eigenvalues, eigenvectors, occupation numbers, and Fermi level.
  Solving generalized eigenproblem
  Updating Kohn-Sham eigenvalues and eigenfunctions.
  Solving real generalised eigenvalue problem by standard LAPACK (fast)
  Determining occupation numbers for Kohn-Sham eigenstates.
  | Chemical potential (Fermi level) in eV                 : -.20949108E+01
  | Error in electron count due to remaining E_F inaccuracy: 0.00000000E+00
  | Maximum occupation number of highest empty state:  0.00E+00

  Highest occupied state (VBM) at     -2.09491084 eV
  | Occupation number:      1.00000000

  Lowest unoccupied state (CBM) at    -2.09491084 eV
  | Occupation number:      1.00000000

  Overall HOMO-LUMO gap:      0.00000000 eV.

  Total energy components:
  | Sum of eigenvalues            :        -169.34475206 Ha       -4608.10516145 eV
  | XC energy correction          :         -37.41684793 Ha       -1018.16423577 eV
  | XC potential correction       :          47.82938087 Ha        1301.50367338 eV
  | Free-atom electrostatic energy:        -142.83462956 Ha       -3886.72802491 eV
  | Hartree energy correction     :          -4.94996475 Ha        -134.69539414 eV
  | van der Waals energy corr.    :           0.00000000 Ha           0.00000000 eV
  | Entropy correction            :          -0.00010367 Ha          -0.00282095 eV
  | ---------------------------
  | Total energy                  :        -306.71681343 Ha       -8346.18914289 eV
  | Total energy, T -> 0          :        -306.71691710 Ha       -8346.19196384 eV  <-- do not rely on this value for anything but (periodic) metals
  | Electronic free energy        :        -306.71702077 Ha       -8346.19478479 eV

  Derived energy quantities:
  | Kinetic energy                :         305.85373166 Ha        8322.70349286 eV
  | Electrostatic energy          :        -575.15369716 Ha      -15650.72839999 eV
  | Energy correction for multipole
  | error in Hartree potential    :          -0.00324961 Ha          -0.08842639 eV
  | Sum of eigenvalues per atom                           :        -354.46962780 eV
  | Total energy (T->0) per atom                          :        -642.01476645 eV  <-- do not rely on this value for anything but (periodic) metals
  | Electronic free energy per atom                       :        -642.01498345 eV

  Self-consistency convergence accuracy:
  | Change of charge density      : 0.2106E+00
  | Change of sum of eigenvalues  : -.8746E+01 eV
  | Change of total energy        : 0.2722E-01 eV

  End self-consistency iteration #     3       :  max(cpu_time)    wall_clock(cpu1)
  | Time for this iteration                    :        1.297 s           1.297 s
  | Charge density update                      :        0.420 s           0.420 s
  | Density mixing                             :        0.006 s           0.006 s
  | Hartree multipole update                   :        0.004 s           0.004 s
  | Hartree multipole summation                :        0.242 s           0.242 s
  | Integration                                :        0.589 s           0.589 s
  | Solution of K.-S. eqns.                    :        0.036 s           0.035 s
  | Total energy evaluation                    :        0.000 s           0.000 s
------------------------------------------------------------

------------------------------------------------------------
          Begin self-consistency iteration #    4

  Date     :  20150727, Time     :  124419.414
------------------------------------------------------------
  Evaluating new KS density.
  Integration grid: deviation in total charge (<rho> - N_e) =   7.105427E-15
  Pulay mixing of updated and previous charge densities.

  Evaluating partitioned Hartree potential by multipole expansion.
  | Analytical far-field extrapolation by fixed multipoles:
  | Hartree multipole sum: apparent total charge =  -0.432468E-05
  Summing up the Hartree potential.
  Time summed over all CPUs for potential: real work        1.916 s, elapsed        1.924 s
  | RMS charge density error from multipole expansion :   0.153781E-01

  Integrating Hamiltonian matrix: batch-based integration.
  Time summed over all CPUs for integration: real work        4.609 s, elapsed        4.692 s

  Updating Kohn-Sham eigenvalues, eigenvectors, occupation numbers, and Fermi level.
  Solving generalized eigenproblem
  Updating Kohn-Sham eigenvalues and eigenfunctions.
  Solving real generalised eigenvalue problem by standard LAPACK (fast)
  Determining occupation numbers for Kohn-Sham eigenstates.
  | Chemical potential (Fermi level) in eV                 : -.20070530E+01
  | Error in electron count due to remaining E_F inaccuracy: -.59583556E-08
  | Maximum occupation number of highest empty state:  0.00E+00

  Highest occupied state (VBM) at     -6.83878712 eV
  | Occupation number:      2.00000000

  Lowest unoccupied state (CBM) at    -2.00705296 eV
  | Occupation number:      0.99999999

  Overall HOMO-LUMO gap:      4.83173416 eV.

  Total energy components:
  | Sum of eigenvalues            :        -168.53807817 Ha       -4586.15444786 eV
  | XC energy correction          :         -37.52944545 Ha       -1021.22817034 eV
  | XC potential correction       :          47.97423476 Ha        1305.44534807 eV
  | Free-atom electrostatic energy:        -142.83462956 Ha       -3886.72802491 eV
  | Hartree energy correction     :          -5.78449315 Ha        -157.40406735 eV
  | van der Waals energy corr.    :           0.00000000 Ha           0.00000000 eV
  | Entropy correction            :          -0.00010367 Ha          -0.00282095 eV
  | ---------------------------
  | Total energy                  :        -306.71241158 Ha       -8346.06936239 eV
  | Total energy, T -> 0          :        -306.71251525 Ha       -8346.07218334 eV  <-- do not rely on this value for anything but (periodic) metals
  | Electronic free energy        :        -306.71261891 Ha       -8346.07500428 eV

  Derived energy quantities:
  | Kinetic energy                :         305.95461068 Ha        8325.44855086 eV
  | Electrostatic energy          :        -575.13757681 Ha      -15650.28974291 eV
  | Energy correction for multipole
  | error in Hartree potential    :          -0.00430900 Ha          -0.11725395 eV
  | Sum of eigenvalues per atom                           :        -352.78111137 eV
  | Total energy (T->0) per atom                          :        -642.00555256 eV  <-- do not rely on this value for anything but (periodic) metals
  | Electronic free energy per atom                       :        -642.00576956 eV

  Self-consistency convergence accuracy:
  | Change of charge density      : 0.9689E-01
  | Change of sum of eigenvalues  : 0.2195E+02 eV
  | Change of total energy        : 0.1198E+00 eV

  End self-consistency iteration #     4       :  max(cpu_time)    wall_clock(cpu1)
  | Time for this iteration                    :        1.297 s           1.297 s
  | Charge density update                      :        0.420 s           0.420 s
  | Density mixing                             :        0.007 s           0.007 s
  | Hartree multipole update                   :        0.005 s           0.005 s
  | Hartree multipole summation                :        0.241 s           0.241 s
  | Integration                                :        0.588 s           0.588 s
  | Solution of K.-S. eqns.                    :        0.036 s           0.035 s
  | Total energy evaluation                    :        0.000 s           0.000 s
------------------------------------------------------------

------------------------------------------------------------
          Begin self-consistency iteration #    5

  Date     :  20150727, Time     :  124420.711
------------------------------------------------------------
  Evaluating new KS density.
  Integration grid: deviation in total charge (<rho> - N_e) =  -5.958384E-09
  Pulay mixing of updated and previous charge densities.

  Evaluating partitioned Hartree potential by multipole expansion.
  | Analytical far-field extrapolation by fixed multipoles:
  | Hartree multipole sum: apparent total charge =  -0.420592E-05
  Summing up the Hartree potential.
  Time summed over all CPUs for potential: real work        1.916 s, elapsed        1.924 s
  | RMS charge density error from multipole expansion :   0.158227E-01

  Integrating Hamiltonian matrix: batch-based integration.
  Time summed over all CPUs for integration: real work        4.607 s, elapsed        4.680 s

  Updating Kohn-Sham eigenvalues, eigenvectors, occupation numbers, and Fermi level.
  Solving generalized eigenproblem
  Updating Kohn-Sham eigenvalues and eigenfunctions.
  Solving real generalised eigenvalue problem by standard LAPACK (fast)
  Determining occupation numbers for Kohn-Sham eigenstates.
  | Chemical potential (Fermi level) in eV                 : -.20086543E+01
  | Error in electron count due to remaining E_F inaccuracy: 0.13464785E-10
  | Maximum occupation number of highest empty state:  0.00E+00

  Highest occupied state (VBM) at     -2.00865429 eV
  | Occupation number:      1.00000000

  Lowest unoccupied state (CBM) at    -1.22070664 eV
  | Occupation number:      0.00000000

  Overall HOMO-LUMO gap:      0.78794765 eV.

  Total energy components:
  | Sum of eigenvalues            :        -168.48798023 Ha       -4584.79121374 eV
  | XC energy correction          :         -37.53625732 Ha       -1021.41353064 eV
  | XC potential correction       :          47.98262982 Ha        1305.67378942 eV
  | Free-atom electrostatic energy:        -142.83462956 Ha       -3886.72802491 eV
  | Hartree energy correction     :          -5.83593173 Ha        -158.80378233 eV
  | van der Waals energy corr.    :           0.00000000 Ha           0.00000000 eV
  | Entropy correction            :          -0.00010367 Ha          -0.00282095 eV
  | ---------------------------
  | Total energy                  :        -306.71216903 Ha       -8346.06276220 eV
  | Total energy, T -> 0          :        -306.71227269 Ha       -8346.06558315 eV  <-- do not rely on this value for anything but (periodic) metals
  | Electronic free energy        :        -306.71237636 Ha       -8346.06840410 eV

  Derived energy quantities:
  | Kinetic energy                :         305.95937856 Ha        8325.57829133 eV
  | Electrostatic energy          :        -575.13529026 Ha      -15650.22752289 eV
  | Energy correction for multipole
  | error in Hartree potential    :          -0.00458018 Ha          -0.12463291 eV
  | Sum of eigenvalues per atom                           :        -352.67624721 eV
  | Total energy (T->0) per atom                          :        -642.00504486 eV  <-- do not rely on this value for anything but (periodic) metals
  | Electronic free energy per atom                       :        -642.00526185 eV

  Self-consistency convergence accuracy:
  | Change of charge density      : 0.2436E-01
  | Change of sum of eigenvalues  : 0.1363E+01 eV
  | Change of total energy        : 0.6600E-02 eV

  End self-consistency iteration #     5       :  max(cpu_time)    wall_clock(cpu1)
  | Time for this iteration                    :        1.299 s           1.298 s
  | Charge density update                      :        0.422 s           0.422 s
  | Density mixing                             :        0.009 s           0.008 s
  | Hartree multipole update                   :        0.004 s           0.005 s
  | Hartree multipole summation                :        0.241 s           0.241 s
  | Integration                                :        0.587 s           0.586 s
  | Solution of K.-S. eqns.                    :        0.036 s           0.036 s
  | Total energy evaluation                    :        0.000 s           0.000 s
------------------------------------------------------------

------------------------------------------------------------
          Begin self-consistency iteration #    6

  Date     :  20150727, Time     :  124422.010
------------------------------------------------------------
  Evaluating new KS density.
  Integration grid: deviation in total charge (<rho> - N_e) =   1.345768E-11
  Pulay mixing of updated and previous charge densities.

  Evaluating partitioned Hartree potential by multipole expansion.
  | Analytical far-field extrapolation by fixed multipoles:
  | Hartree multipole sum: apparent total charge =  -0.423046E-05
  Summing up the Hartree potential.
  Time summed over all CPUs for potential: real work        1.916 s, elapsed        1.925 s
  | RMS charge density error from multipole expansion :   0.161348E-01

  Integrating Hamiltonian matrix: batch-based integration.
  Time summed over all CPUs for integration: real work        4.610 s, elapsed        4.689 s

  Updating Kohn-Sham eigenvalues, eigenvectors, occupation numbers, and Fermi level.
  Solving generalized eigenproblem
  Updating Kohn-Sham eigenvalues and eigenfunctions.
  Solving real generalised eigenvalue problem by standard LAPACK (fast)
  Determining occupation numbers for Kohn-Sham eigenstates.
  | Chemical potential (Fermi level) in eV                 : -.20111458E+01
  | Error in electron count due to remaining E_F inaccuracy: 0.50110600E-08
  | Maximum occupation number of highest empty state:  0.00E+00

  Highest occupied state (VBM) at     -2.01114578 eV
  | Occupation number:      1.00000001

  Lowest unoccupied state (CBM) at    -1.22442950 eV
  | Occupation number:      0.00000000

  Overall HOMO-LUMO gap:      0.78671628 eV.

  Total energy components:
  | Sum of eigenvalues            :        -168.47655557 Ha       -4584.48033282 eV
  | XC energy correction          :         -37.53922575 Ha       -1021.49430560 eV
  | XC potential correction       :          47.98615902 Ha        1305.76982380 eV
  | Free-atom electrostatic energy:        -142.83462956 Ha       -3886.72802491 eV
  | Hartree energy correction     :          -5.84794705 Ha        -159.13073560 eV
  | van der Waals energy corr.    :           0.00000000 Ha           0.00000000 eV
  | Entropy correction            :          -0.00010367 Ha          -0.00282095 eV
  | ---------------------------
  | Total energy                  :        -306.71219890 Ha       -8346.06357513 eV
  | Total energy, T -> 0          :        -306.71230257 Ha       -8346.06639608 eV  <-- do not rely on this value for anything but (periodic) metals
  | Electronic free energy        :        -306.71240624 Ha       -8346.06921703 eV

  Derived energy quantities:
  | Kinetic energy                :         305.94630755 Ha        8325.22261118 eV
  | Electrostatic energy          :        -575.11928071 Ha      -15649.79188072 eV
  | Energy correction for multipole
  | error in Hartree potential    :          -0.00476722 Ha          -0.12972252 eV
  | Sum of eigenvalues per atom                           :        -352.65233329 eV
  | Total energy (T->0) per atom                          :        -642.00510739 eV  <-- do not rely on this value for anything but (periodic) metals
  | Electronic free energy per atom                       :        -642.00532439 eV

  Self-consistency convergence accuracy:
  | Change of charge density      : 0.7491E-02
  | Change of sum of eigenvalues  : 0.3109E+00 eV
  | Change of total energy        : -.8129E-03 eV

  End self-consistency iteration #     6       :  max(cpu_time)    wall_clock(cpu1)
  | Time for this iteration                    :        1.301 s           1.300 s
  | Charge density update                      :        0.422 s           0.421 s
  | Density mixing                             :        0.009 s           0.009 s
  | Hartree multipole update                   :        0.005 s           0.005 s
  | Hartree multipole summation                :        0.241 s           0.241 s
  | Integration                                :        0.588 s           0.588 s
  | Solution of K.-S. eqns.                    :        0.035 s           0.035 s
  | Total energy evaluation                    :        0.000 s           0.000 s
------------------------------------------------------------

------------------------------------------------------------
          Begin self-consistency iteration #    7

  Date     :  20150727, Time     :  124423.310
------------------------------------------------------------
  Evaluating new KS density.
  Integration grid: deviation in total charge (<rho> - N_e) =   5.011081E-09
  Pulay mixing of updated and previous charge densities.

  Evaluating partitioned Hartree potential by multipole expansion.
  | Analytical far-field extrapolation by fixed multipoles:
  | Hartree multipole sum: apparent total charge =  -0.424718E-05
  Summing up the Hartree potential.
  Time summed over all CPUs for potential: real work        1.916 s, elapsed        1.925 s
  | RMS charge density error from multipole expansion :   0.161211E-01

  Integrating Hamiltonian matrix: batch-based integration.
  Time summed over all CPUs for integration: real work        4.616 s, elapsed        4.713 s

  Updating Kohn-Sham eigenvalues, eigenvectors, occupation numbers, and Fermi level.
  Solving generalized eigenproblem
  Updating Kohn-Sham eigenvalues and eigenfunctions.
  Solving real generalised eigenvalue problem by standard LAPACK (fast)
  Determining occupation numbers for Kohn-Sham eigenstates.
  | Chemical potential (Fermi level) in eV                 : -.20156606E+01
  | Error in electron count due to remaining E_F inaccuracy: 0.30407676E-09
  | Maximum occupation number of highest empty state:  0.00E+00

  Highest occupied state (VBM) at     -2.01566059 eV
  | Occupation number:      1.00000000

  Lowest unoccupied state (CBM) at    -1.23047309 eV
  | Occupation number:      0.00000000

  Overall HOMO-LUMO gap:      0.78518751 eV.

  Total energy components:
  | Sum of eigenvalues            :        -168.49263703 Ha       -4584.91793173 eV
  | XC energy correction          :         -37.53713245 Ha       -1021.43734414 eV
  | XC potential correction       :          47.98336742 Ha        1305.69386044 eV
  | Free-atom electrostatic energy:        -142.83462956 Ha       -3886.72802491 eV
  | Hartree energy correction     :          -5.83114759 Ha        -158.67359903 eV
  | van der Waals energy corr.    :           0.00000000 Ha           0.00000000 eV
  | Entropy correction            :          -0.00010367 Ha          -0.00282095 eV
  | ---------------------------
  | Total energy                  :        -306.71217921 Ha       -8346.06303936 eV
  | Total energy, T -> 0          :        -306.71228288 Ha       -8346.06586031 eV  <-- do not rely on this value for anything but (periodic) metals
  | Electronic free energy        :        -306.71238655 Ha       -8346.06868125 eV

  Derived energy quantities:
  | Kinetic energy                :         305.96798549 Ha        8325.81249773 eV
  | Electrostatic energy          :        -575.14303225 Ha      -15650.43819295 eV
  | Energy correction for multipole
  | error in Hartree potential    :          -0.00479216 Ha          -0.13040130 eV
  | Sum of eigenvalues per atom                           :        -352.68599475 eV
  | Total energy (T->0) per atom                          :        -642.00506618 eV  <-- do not rely on this value for anything but (periodic) metals
  | Electronic free energy per atom                       :        -642.00528317 eV

  Self-consistency convergence accuracy:
  | Change of charge density      : 0.5441E-02
  | Change of sum of eigenvalues  : -.4376E+00 eV
  | Change of total energy        : 0.5358E-03 eV

  End self-consistency iteration #     7       :  max(cpu_time)    wall_clock(cpu1)
  | Time for this iteration                    :        1.304 s           1.304 s
  | Charge density update                      :        0.421 s           0.421 s
  | Density mixing                             :        0.011 s           0.011 s
  | Hartree multipole update                   :        0.004 s           0.004 s
  | Hartree multipole summation                :        0.242 s           0.242 s
  | Integration                                :        0.590 s           0.590 s
  | Solution of K.-S. eqns.                    :        0.036 s           0.036 s
  | Total energy evaluation                    :        0.000 s           0.000 s
------------------------------------------------------------

------------------------------------------------------------
          Begin self-consistency iteration #    8

  Date     :  20150727, Time     :  124424.615
------------------------------------------------------------
  Evaluating new KS density.
  Integration grid: deviation in total charge (<rho> - N_e) =   3.040981E-10
  Pulay mixing of updated and previous charge densities.

  Evaluating partitioned Hartree potential by multipole expansion.
  | Analytical far-field extrapolation by fixed multipoles:
  | Hartree multipole sum: apparent total charge =  -0.421906E-05
  Summing up the Hartree potential.
  Time summed over all CPUs for potential: real work        1.916 s, elapsed        1.924 s
  | RMS charge density error from multipole expansion :   0.161312E-01

  Integrating Hamiltonian matrix: batch-based integration.
  Time summed over all CPUs for integration: real work        4.602 s, elapsed        4.684 s

  Updating Kohn-Sham eigenvalues, eigenvectors, occupation numbers, and Fermi level.
  Solving generalized eigenproblem
  Updating Kohn-Sham eigenvalues and eigenfunctions.
  Solving real generalised eigenvalue problem by standard LAPACK (fast)
  Determining occupation numbers for Kohn-Sham eigenstates.
  | Chemical potential (Fermi level) in eV                 : -.20255446E+01
  | Error in electron count due to remaining E_F inaccuracy: 0.68844699E-08
  | Maximum occupation number of highest empty state:  0.00E+00

  Highest occupied state (VBM) at     -2.02554459 eV
  | Occupation number:      1.00000001

  Lowest unoccupied state (CBM) at    -1.24021510 eV
  | Occupation number:      0.00000000

  Overall HOMO-LUMO gap:      0.78532949 eV.

  Total energy components:
  | Sum of eigenvalues            :        -168.53453932 Ha       -4586.05815089 eV
  | XC energy correction          :         -37.53245671 Ha       -1021.31011085 eV
  | XC potential correction       :          47.97713064 Ha        1305.52414911 eV
  | Free-atom electrostatic energy:        -142.83462956 Ha       -3886.72802491 eV
  | Hartree energy correction     :          -5.78767652 Ha        -157.49069121 eV
  | van der Waals energy corr.    :           0.00000000 Ha           0.00000000 eV
  | Entropy correction            :          -0.00010367 Ha          -0.00282095 eV
  | ---------------------------
  | Total energy                  :        -306.71217147 Ha       -8346.06282874 eV
  | Total energy, T -> 0          :        -306.71227514 Ha       -8346.06564969 eV  <-- do not rely on this value for anything but (periodic) metals
  | Electronic free energy        :        -306.71237881 Ha       -8346.06847064 eV

  Derived energy quantities:
  | Kinetic energy                :         305.98640843 Ha        8326.31381152 eV
  | Electrostatic energy          :        -575.16612319 Ha      -15651.06652941 eV
  | Energy correction for multipole
  | error in Hartree potential    :          -0.00486132 Ha          -0.13228327 eV
  | Sum of eigenvalues per atom                           :        -352.77370391 eV
  | Total energy (T->0) per atom                          :        -642.00504998 eV  <-- do not rely on this value for anything but (periodic) metals
  | Electronic free energy per atom                       :        -642.00526697 eV

  Self-consistency convergence accuracy:
  | Change of charge density      : 0.3562E-02
  | Change of sum of eigenvalues  : -.1140E+01 eV
  | Change of total energy        : 0.2106E-03 eV

  End self-consistency iteration #     8       :  max(cpu_time)    wall_clock(cpu1)
  | Time for this iteration                    :        1.303 s           1.302 s
  | Charge density update                      :        0.422 s           0.422 s
  | Density mixing                             :        0.012 s           0.012 s
  | Hartree multipole update                   :        0.004 s           0.004 s
  | Hartree multipole summation                :        0.242 s           0.241 s
  | Integration                                :        0.586 s           0.587 s
  | Solution of K.-S. eqns.                    :        0.036 s           0.036 s
  | Total energy evaluation                    :        0.001 s           0.000 s
------------------------------------------------------------

------------------------------------------------------------
          Begin self-consistency iteration #    9

  Date     :  20150727, Time     :  124425.917
------------------------------------------------------------
  Evaluating new KS density.
  Integration grid: deviation in total charge (<rho> - N_e) =   6.884477E-09
  Pulay mixing of updated and previous charge densities.

  Evaluating partitioned Hartree potential by multipole expansion.
  | Analytical far-field extrapolation by fixed multipoles:
  | Hartree multipole sum: apparent total charge =  -0.421667E-05
  Summing up the Hartree potential.
  Time summed over all CPUs for potential: real work        1.916 s, elapsed        1.925 s
  | RMS charge density error from multipole expansion :   0.161290E-01

  Integrating Hamiltonian matrix: batch-based integration.
  Time summed over all CPUs for integration: real work        4.610 s, elapsed        4.706 s

  Updating Kohn-Sham eigenvalues, eigenvectors, occupation numbers, and Fermi level.
  Solving generalized eigenproblem
  Updating Kohn-Sham eigenvalues and eigenfunctions.
  Solving real generalised eigenvalue problem by standard LAPACK (fast)
  Determining occupation numbers for Kohn-Sham eigenstates.
  | Chemical potential (Fermi level) in eV                 : -.20255426E+01
  | Error in electron count due to remaining E_F inaccuracy: 0.82484632E-08
  | Maximum occupation number of highest empty state:  0.00E+00

  Highest occupied state (VBM) at     -2.02554262 eV
  | Occupation number:      1.00000001

  Lowest unoccupied state (CBM) at    -1.23939735 eV
  | Occupation number:      0.00000000

  Overall HOMO-LUMO gap:      0.78614527 eV.

  Total energy components:
  | Sum of eigenvalues            :        -168.53290807 Ha       -4586.01376238 eV
  | XC energy correction          :         -37.53274621 Ha       -1021.31798833 eV
  | XC potential correction       :          47.97751570 Ha        1305.53462704 eV
  | Free-atom electrostatic energy:        -142.83462956 Ha       -3886.72802491 eV
  | Hartree energy correction     :          -5.78940256 Ha        -157.53765918 eV
  | van der Waals energy corr.    :           0.00000000 Ha           0.00000000 eV
  | Entropy correction            :          -0.00010367 Ha          -0.00282095 eV
  | ---------------------------
  | Total energy                  :        -306.71217070 Ha       -8346.06280777 eV
  | Total energy, T -> 0          :        -306.71227437 Ha       -8346.06562871 eV  <-- do not rely on this value for anything but (periodic) metals
  | Electronic free energy        :        -306.71237804 Ha       -8346.06844966 eV

  Derived energy quantities:
  | Kinetic energy                :         305.98868917 Ha        8326.37587361 eV
  | Electrostatic energy          :        -575.16811366 Ha      -15651.12069305 eV
  | Energy correction for multipole
  | error in Hartree potential    :          -0.00486111 Ha          -0.13227764 eV
  | Sum of eigenvalues per atom                           :        -352.77028941 eV
  | Total energy (T->0) per atom                          :        -642.00504836 eV  <-- do not rely on this value for anything but (periodic) metals
  | Electronic free energy per atom                       :        -642.00526536 eV

  Self-consistency convergence accuracy:
  | Change of charge density      : 0.7740E-03
  | Change of sum of eigenvalues  : 0.4439E-01 eV
  | Change of total energy        : 0.2098E-04 eV

  End self-consistency iteration #     9       :  max(cpu_time)    wall_clock(cpu1)
  | Time for this iteration                    :        1.306 s           1.306 s
  | Charge density update                      :        0.421 s           0.422 s
  | Density mixing                             :        0.013 s           0.013 s
  | Hartree multipole update                   :        0.004 s           0.004 s
  | Hartree multipole summation                :        0.242 s           0.241 s
  | Integration                                :        0.589 s           0.589 s
  | Solution of K.-S. eqns.                    :        0.036 s           0.036 s
  | Total energy evaluation                    :        0.000 s           0.000 s
------------------------------------------------------------

------------------------------------------------------------
          Begin self-consistency iteration #   10

  Date     :  20150727, Time     :  124427.223
------------------------------------------------------------
  Evaluating new KS density.
  Integration grid: deviation in total charge (<rho> - N_e) =   8.248485E-09
[...]
  | Electronic free energy        :        -306.71407538 Ha       -8346.11463663 eV

  Derived energy quantities:
  | Kinetic energy                :         305.99043685 Ha        8326.42343038 eV
  | Electrostatic energy          :        -575.16974632 Ha      -15651.16511994 eV
  | Energy correction for multipole
  | error in Hartree potential    :          -0.00488375 Ha          -0.13289352 eV
  | Sum of eigenvalues per atom                           :        -352.77157752 eV
  | Total energy (T->0) per atom                          :        -642.00860121 eV  <-- do not rely on this value for anything but (periodic) metals
  | Electronic free energy per atom                       :        -642.00881820 eV

  atomic forces [eV/Ang]:
  -----------------------
  atom #    1
   Hellmann-Feynman + Multipole  : -.264870E+01 -.765731E+01 -.731020E+01
   Pulay + GGA                   : 0.118894E+01 0.821911E+01 0.742735E+01
   Van der Waals               : -.371587E-02 -.770790E-02 0.301423E-02
   ----------------------------------------------------------------
   Total forces(   1)            : -.146348E+01 0.554088E+00 0.120161E+00
  atom #    2
   Hellmann-Feynman + Multipole  : 0.167060E+00 -.615687E+00 0.229210E+00
   Pulay + GGA                   : -.304604E-01 0.593375E-01 -.270772E-01
   Van der Waals               : -.442080E-02 0.795301E-03 0.334579E-03
   ----------------------------------------------------------------
   Total forces(   2)            : 0.132179E+00 -.555554E+00 0.202468E+00
  atom #    3
   Hellmann-Feynman + Multipole  : 0.742958E+00 -.716744E-02 0.152704E-01
   Pulay + GGA                   : 0.831306E-01 0.280905E-02 0.252418E-01
   Van der Waals               : 0.297255E-02 -.341162E-02 0.133573E-02
   ----------------------------------------------------------------
   Total forces(   3)            : 0.829061E+00 -.777002E-02 0.418479E-01
  atom #    4
   Hellmann-Feynman + Multipole  : 0.213982E+00 0.816864E-01 -.617890E+00
   Pulay + GGA                   : -.325222E-01 -.288597E-01 0.130162E+00
   Van der Waals               : -.373522E-02 -.340558E-02 0.330061E-02
   ----------------------------------------------------------------
   Total forces(   4)            : 0.177724E+00 0.494211E-01 -.484427E+00
  atom #    5
   Hellmann-Feynman + Multipole  : -.658526E+01 -.681362E+01 0.913050E+01
   Pulay + GGA                   : 0.703003E+01 0.608097E+01 -.613261E+01
   Van der Waals               : 0.538047E-03 0.588971E-02 0.235198E-02
   ----------------------------------------------------------------
   Total forces(   5)            : 0.445306E+00 -.726760E+00 0.300024E+01
  atom #    6
   Hellmann-Feynman + Multipole  : -.587490E-01 -.478771E-01 -.816051E-01
   Pulay + GGA                   : 0.842049E-01 0.127423E+00 0.510003E-01
   Van der Waals               : 0.441101E-03 0.539359E-02 -.229698E-02
   ----------------------------------------------------------------
   Total forces(   6)            : 0.258971E-01 0.849397E-01 -.329018E-01
  atom #    7
   Hellmann-Feynman + Multipole  : -.304657E+00 0.425259E+00 -.274430E+01
   Pulay + GGA                   : -.289619E-01 0.222052E-01 -.139604E+00
   Van der Waals               : 0.982552E-03 0.152186E-02 0.167245E-02
   ----------------------------------------------------------------
   Total forces(   7)            : -.332636E+00 0.448986E+00 -.288223E+01
  atom #    8
   Hellmann-Feynman + Multipole  : -.449796E+01 0.208550E+01 -.972619E+01
   Pulay + GGA                   : 0.588033E+01 -.211935E+01 0.106523E+02
   Van der Waals               : 0.655623E-03 0.403705E-02 -.145593E-02
   ----------------------------------------------------------------
   Total forces(   8)            : 0.138302E+01 -.298154E-01 0.924631E+00
  atom #    9
   Hellmann-Feynman + Multipole  : -.144846E+00 -.438087E+00 -.747911E+00
   Pulay + GGA                   : 0.820687E-02 0.981335E-01 0.108988E+00
   Van der Waals               : 0.227410E-02 0.416784E-02 0.508368E-03
   ----------------------------------------------------------------
   Total forces(   9)            : -.134365E+00 -.335785E+00 -.638414E+00
  atom #   10
   Hellmann-Feynman + Multipole  : -.121286E+01 0.626982E+00 -.265297E+00
   Pulay + GGA                   : 0.122757E+00 -.775656E-01 0.119088E-01
   Van der Waals               : 0.535875E-03 0.112009E-02 -.837663E-04
   ----------------------------------------------------------------
   Total forces(  10)            : -.108957E+01 0.550536E+00 -.253472E+00
  atom #   11
   Hellmann-Feynman + Multipole  : 0.138556E+01 -.160469E+02 0.191588E+01
   Pulay + GGA                   : -.155542E+00 0.160307E+02 -.360073E+01
   Van der Waals               : 0.180633E-02 -.395403E-02 -.493285E-02
   ----------------------------------------------------------------
   Total forces(  11)            : 0.123182E+01 -.201503E-01 -.168979E+01
  atom #   12
   Hellmann-Feynman + Multipole  : -.268557E+00 0.601029E+00 0.216958E+00
   Pulay + GGA                   : -.751998E-01 0.995130E-01 0.915225E-01
   Van der Waals               : 0.555505E-03 -.895384E-03 -.145847E-02
   ----------------------------------------------------------------
   Total forces(  12)            : -.343201E+00 0.699646E+00 0.307022E+00
  atom #   13
   Hellmann-Feynman + Multipole  : -.934208E+00 -.775993E+00 0.150582E+01
   Pulay + GGA                   : 0.765996E-01 0.741133E-01 -.125803E+00
   Van der Waals               : 0.111021E-02 -.355093E-02 -.228994E-02
   ----------------------------------------------------------------
   Total forces(  13)            : -.856499E+00 -.705430E+00 0.137773E+01
  Timings for vdw_correction_hirshfeld (Tkatchenko-Scheffler 2009):
  | CPU time:        3.549 s, Wall clock time:        3.549 s.
  Removing unitary transformations (pure translations, rotations) from forces on atoms.
  Atomic forces before filtering:
  | Net force on center of mass :  0.526132E-02 0.635112E-02 -.712929E-02 eV/A
  | Net torque on center of mass:  -.105800E-01 0.118582E-01 -.667316E-02 eV
  Atomic forces after filtering:
  | Net force on center of mass :  -.178406E-15 -.892031E-16 0.178406E-15 eV/A
  | Net torque on center of mass:  -.113290E-14 0.132172E-14 0.755268E-15 eV
 
  Energy and forces in a compact form:
  | Total energy uncorrected      :         -0.834610899473380E+04 eV
  | Total energy corrected        :         -0.834611181568172E+04 eV  <-- do not rely on this value for anything but (periodic) metals
  | Electronic free energy        :         -0.834611463662964E+04 eV
  Total atomic forces (unitary forces cleaned) [eV/Ang]:
  |   1         -0.146373275411982E+01          0.553761352517011E+00          0.120177643115179E+00
  |   2          0.132047114394087E+00         -0.555762625989193E+00          0.202603499347398E+00
  |   3          0.828796449912106E+00         -0.811483346847080E-02          0.422360575888694E-01
  |   4          0.177189832606457E+00          0.488116782421447E-01         -0.484539345590534E+00
  |   5          0.445302498453355E+00         -0.726840278354876E+00          0.300052548347612E+01
  |   6          0.257919294959846E-01          0.847509452103221E-01         -0.322425150587220E-01
  |   7         -0.332370010068674E+00          0.449176247335731E+00         -0.288194329740118E+01
  |   8          0.138276841189796E+01         -0.301589587348420E-01          0.925602641400043E+00
  |   9         -0.134848972368152E+00         -0.336362514320320E+00         -0.637230781249430E+00
  |  10         -0.108986272464493E+01          0.550151637323542E+00         -0.252432208350291E+00
  |  11          0.123072394040097E+01         -0.213391072243483E-01         -0.168914304475419E+01
  |  12         -0.344438313090422E+00          0.698317631350503E+00          0.307733492649440E+00
  |  13         -0.857367402868927E+00         -0.706391173887204E+00          0.137865237482729E+01
 
  ------------------------------------ 
  Start decomposition of the XC Energy 
  ------------------------------------ 
  Hartree-Fock part   :          0.000000000 Ha              0.000000000 eV
  ------------------------------------ 
  X Energy            :        -36.204465535 Ha           -985.173632282 eV
  C Energy GGA        :         -1.328395964 Ha            -36.147493351 eV
  Total XC Energy     :        -37.532861499 Ha          -1021.321125633 eV
  LDA X and C from self-consistent density 
  X Energy LDA        :        -32.628640784 Ha           -887.870490095 eV
  C Energy LDA        :         -2.676655012 Ha            -72.835488695 eV
  ------------------------------------ 
  End decomposition of the XC Energy 
  ------------------------------------ 
  Performing Hirshfeld analysis of fragment charges and moments.
  ----------------------------------------------------------------------
  | Atom     1: O
  |   Hirshfeld charge        :     -0.13527448
  |   Free atom volume        :     23.95238533
  |   Hirshfeld volume        :     21.90740971
  |   Hirshfeld dipole vector :      0.00538610       0.03044344       0.01189657
  |   Hirshfeld dipole moment :      0.03312615
  |   Hirshfeld second moments:      0.07370935      -0.00823122      -0.01228949
  |                                 -0.00823122       0.03325613      -0.02599386
  |                                 -0.01228949      -0.02599386       0.06348930
  ----------------------------------------------------------------------
  | Atom     2: H
  |   Hirshfeld charge        :      0.11061248
  |   Free atom volume        :     10.44207651
  |   Hirshfeld volume        :      9.79553102
  |   Hirshfeld dipole vector :     -0.00563718       0.00872476      -0.00776521
  |   Hirshfeld dipole moment :      0.01296911
  |   Hirshfeld second moments:      0.04459361       0.01380144      -0.00260786
  |                                  0.01380144       0.02344903       0.01019535
  |                                 -0.00260786       0.01019535       0.05531294
  ----------------------------------------------------------------------
  | Atom     3: H
  |   Hirshfeld charge        :      0.09335445
  |   Free atom volume        :     10.44207651
  |   Hirshfeld volume        :     10.40016200
  |   Hirshfeld dipole vector :      0.01297692       0.00388510      -0.00647259
  |   Hirshfeld dipole moment :      0.01501296
  |   Hirshfeld second moments:      0.01799524      -0.01601760      -0.00321944
  |                                 -0.01601760       0.03769057       0.00392526
  |                                 -0.00321944       0.00392526       0.03355021
  ----------------------------------------------------------------------
  | Atom     4: H
  |   Hirshfeld charge        :      0.11849081
  |   Free atom volume        :     10.44207651
  |   Hirshfeld volume        :     12.02832898
  |   Hirshfeld dipole vector :     -0.02513729      -0.00349027       0.02248494
  |   Hirshfeld dipole moment :      0.03390631
  |   Hirshfeld second moments:      0.03165098      -0.00199986      -0.00458434
  |                                 -0.00199986       0.02174458      -0.00581913
  |                                 -0.00458434      -0.00581913      -0.02447291
  ----------------------------------------------------------------------
  | Atom     5: O
  |   Hirshfeld charge        :     -0.20963151
  |   Free atom volume        :     23.95238533
  |   Hirshfeld volume        :     22.50694786
  |   Hirshfeld dipole vector :      0.02785907      -0.00526400      -0.01984023
  |   Hirshfeld dipole moment :      0.03460452
  |   Hirshfeld second moments:     -0.01105671       0.00074327       0.03539738
  |                                  0.00074327       0.05189158       0.00707617
  |                                  0.03539738       0.00707617       0.05897652
  ----------------------------------------------------------------------
  | Atom     6: H
  |   Hirshfeld charge        :      0.08609341
  |   Free atom volume        :     10.44207651
  |   Hirshfeld volume        :     11.98271642
  |   Hirshfeld dipole vector :      0.00417486       0.01996110       0.02653834
  |   Hirshfeld dipole moment :      0.03346877
  |   Hirshfeld second moments:     -0.02911567      -0.02582578       0.00569250
  |                                 -0.02582578      -0.00364125       0.00571645
  |                                  0.00569250       0.00571645       0.04025357
  ----------------------------------------------------------------------
  | Atom     7: H
  |   Hirshfeld charge        :      0.11592617
  |   Free atom volume        :     10.44207651
  |   Hirshfeld volume        :     11.02219686
  |   Hirshfeld dipole vector :     -0.01580799      -0.00380763      -0.07194866
  |   Hirshfeld dipole moment :      0.07376313
  |   Hirshfeld second moments:      0.01879142      -0.00071143       0.01617630
  |                                 -0.00071143       0.04410584       0.00784401
  |                                  0.01617630       0.00784401       0.03340391
  ----------------------------------------------------------------------
  | Atom     8: O
  |   Hirshfeld charge        :     -0.23330568
  |   Free atom volume        :     23.95238533
  |   Hirshfeld volume        :     23.62061829
  |   Hirshfeld dipole vector :     -0.00818277      -0.03129911       0.03021730
  |   Hirshfeld dipole moment :      0.04426825
  |   Hirshfeld second moments:      0.03784202      -0.01464830       0.00845666
  |                                 -0.01464830       0.00377080       0.04866069
  |                                  0.00845666       0.04866069      -0.03213872
  ----------------------------------------------------------------------
  | Atom     9: H
  |   Hirshfeld charge        :      0.06610186
  |   Free atom volume        :     10.44207651
  |   Hirshfeld volume        :     13.83026198
  |   Hirshfeld dipole vector :      0.00815183       0.00994447       0.01941966
  |   Hirshfeld dipole moment :      0.02329094
  |   Hirshfeld second moments:      0.01025308       0.00020394       0.01055367
  |                                  0.00020394      -0.03796057       0.00996825
  |                                  0.01055367       0.00996825      -0.06495918
  ----------------------------------------------------------------------
  | Atom    10: H
  |   Hirshfeld charge        :      0.10081391
  |   Free atom volume        :     10.44207651
  |   Hirshfeld volume        :     11.91250361
  |   Hirshfeld dipole vector :      0.04963115      -0.04186564      -0.00757258
  |   Hirshfeld dipole moment :      0.06537069
  |   Hirshfeld second moments:      0.02209679      -0.00337693      -0.00199295
  |                                 -0.00337693       0.01501558       0.02860071
  |                                 -0.00199295       0.02860071      -0.00035785
  ----------------------------------------------------------------------
  | Atom    11: O
  |   Hirshfeld charge        :     -0.32144961
  |   Free atom volume        :     23.95238533
  |   Hirshfeld volume        :     24.18014249
  |   Hirshfeld dipole vector :     -0.01624135       0.07492564      -0.00005827
  |   Hirshfeld dipole moment :      0.07666574
  |   Hirshfeld second moments:     -0.05037577      -0.00648143      -0.06680497
  |                                 -0.00648143      -0.04472489       0.00582367
  |                                 -0.06680497       0.00582367       0.00109658
  ----------------------------------------------------------------------
  | Atom    12: H
  |   Hirshfeld charge        :      0.12497318
  |   Free atom volume        :     10.44207651
  |   Hirshfeld volume        :      7.90588611
  |   Hirshfeld dipole vector :     -0.06446556       0.08376472       0.06920228
  |   Hirshfeld dipole moment :      0.12633801
  |   Hirshfeld second moments:      0.07995346       0.00225425      -0.02271177
  |                                  0.00225425       0.08055082      -0.00472916
  |                                 -0.02271177      -0.00472916       0.09540949
  ----------------------------------------------------------------------
  | Atom    13: H
  |   Hirshfeld charge        :      0.08330128
  |   Free atom volume        :     10.44207651
  |   Hirshfeld volume        :     11.06433634
  |   Hirshfeld dipole vector :      0.01865971       0.04839964      -0.04886433
  |   Hirshfeld dipole moment :      0.07126313
  |   Hirshfeld second moments:     -0.00302757      -0.00553548      -0.00847377
  |                                 -0.00553548       0.03475102       0.02780155
  |                                 -0.00847377       0.02780155       0.02557512
  ----------------------------------------------------------------------


------------------------------------------------------------------------------
  Final output of selected total energy values:

  The following output summarizes some interesting total energy values
  at the end of a run (AFTER all relaxation, molecular dynamics, etc.).

  | Total energy of the DFT / Hartree-Fock s.c.f. calculation      :          -8346.108994734 eV
  | Final zero-broadening corrected energy (caution - metals only) :          -8346.111815682 eV
  | For reference only, the value of 1 Hartree used in FHI-aims is :             27.211384500 eV

  Before relying on these values, please be sure to understand exactly which
  total energy value is referred to by a given number. Different objects may
  all carry the same name 'total energy'. Definitions:

  Total energy of the DFT / Hartree-Fock s.c.f. calculation:
  | Note that this energy does not include ANY quantities calculated after the
  | s.c.f. cycle, in particular not ANY RPA, MP2, etc. many-body perturbation terms.

  Final zero-broadening corrected energy:
  | For metallic systems only, a broadening of the occupation numbers at the Fermi
  | level can be extrapolated back to zero broadening by an electron-gas inspired
  | formula. For all systems that are not real metals, this value can be
  | meaningless and should be avoided.

------------------------------------------------------------------------------

------------------------------------------------------------
          Leaving FHI-aims.
          Date     :  20150727, Time     :  124439.111

          Computational steps:
          | Number of self-consistency cycles          :           16

          Detailed time accounting                     :  max(cpu_time)    wall_clock(cpu1)
          | Total time                                 :       25.456 s          25.485 s
          | Preparation time                           :        0.169 s           0.519 s
          | Grid partitioning                          :        0.126 s           0.126 s
          | Preloading free-atom quantities on grid    :        0.014 s           0.013 s
          | Free-atom superposition energy             :        0.051 s           0.051 s
          | Total time for integrations                :       10.313 s          10.312 s
          | Total time for solution of K.-S. equations :        0.709 s           0.710 s
          | Total time for density & force components  :        8.585 s           8.588 s
          | Total time for mixing                      :        0.177 s           0.176 s
          | Total time for Hartree multipole update    :        0.070 s           0.069 s
          | Total time for Hartree multipole sum       :        4.664 s           4.666 s
          | Total time for total energy evaluation     :        0.003 s           0.004 s
          | Total time for scaled ZORA corrections     :        0.000 s           0.000 s
          | Total time for TS (2009) vdW correction    :        0.039 s           0.039 s

          Have a nice day.
------------------------------------------------------------
