  MPI-parallelism will be employed.
------------------------------------------------------------
          Invoking FHI-aims ...
          Version 081213
          Compiled on 2013/08/29 at 17:41:06 on host generoso.

          When using FHI-aims, please cite the following reference:

          Volker Blum, Ralf Gehrke, Felix Hanke, Paula Havu,
          Ville Havu, Xinguo Ren, Karsten Reuter, and Matthias Scheffler,
          'Ab Initio Molecular Simulations with Numeric Atom-Centered Orbitals: FHI-aims',
          Computer Physics Communications 180, 2175-2196 (2009)

          For any questions about FHI-aims, please visit the aimsclub website
          with its forums and wiki. Contributions to both the forums and the
          wiki are warmly encouraged - they are for you, and everyone is welcome there.

------------------------------------------------------------

  Date     :  20150727, Time     :  123751.097
  Time zero on CPU 1             :   0.479920000000000E-01  s.
  Internal wall clock time zero  :           207232671.097  s.

  Using        8 parallel tasks.
  Task        0 on host gen59 reporting.
  Task        1 on host gen59 reporting.
  Task        2 on host gen59 reporting.
  Task        3 on host gen59 reporting.
  Task        4 on host gen59 reporting.
  Task        5 on host gen59 reporting.
  Task        6 on host gen59 reporting.
  Task        7 on host gen59 reporting.

  Performing system and environment tests:
  | Environment variable OMP_NUM_THREADS correctly set to 1.
  | Checking for scalapack...
  | No scalapack compiled in.

  Obtaining array dimensions for all initial allocations:
  
  -----------------------------------------------------------------------
  Parsing control.in (first pass over file, find array dimensions only).
  The contents of control.in will be repeated verbatim below
  unless switched off by setting 'verbatim_writeout .false.' .
  in the first line of control.in .
  -----------------------------------------------------------------------
  
  #########################################################################################
  #
  #  Volker Blum, FHI 2008 : Test run input file control.in
  #
  #########################################################################################
  #
  #  Physical model
  #
    xc                 rpbe
    spin               none
    relativistic       atomic_zora scalar
    charge             0.
   vdw_correction_hirshfeld
  #
  #  SCF convergence
  #
    occupation_type    gaussian 0.01
    mixer              pulay
      n_max_pulay        10
      charge_mix_param   0.1
    sc_accuracy_rho    5E-5
    sc_accuracy_eev    5E-3
    sc_accuracy_etot   5E-6
    sc_iter_limit      3000
  #
  #  Eigenvalue solver
  #
    KS_method          lapack
      empty_states       8
      basis_threshold    0.e-5
  #
  #  Efficiency
  #
  #   all previous settings are now default, except stratmann still
  #   undecided. Continue to handle stratmann with care, if at all.
  #
  #  partition_type stratmann
    partition_type rho_r2
  #  hartree_partition_type stratmann
  #
  #  Oprions for large clusters (100's of atoms: memory saving / better scaling)
  #
  # for periodic systems:
  #
    density_update_method orbital
    packed_matrix_format none
  #  k_grid 6 6 6
  #  output k_eigenvalue 1
  #  distributed_spline_storage .true.
  #
  #  Relaxation
  #
  #  relax_geometry   bfgs 5.e-3
    sc_accuracy_forces 5.E-4
    final_forces_cleaned .true.
  #
  #  Output options
  #
  #  output mulliken
    output Hirshfeld
  #  output dipole
  
  #harmonic_length_scale 0.001
  
  ################################################################################
  #
  #  FHI-aims code project
  #  VB, Fritz-Haber Institut, 2007
  #
  #  Suggested "safe" defaults for H atom (to be pasted into control.in file)
  #  Basis constructed for a non-relativistic H2 molecule using the
  #  PW-LDA functional.
  #
  ################################################################################
    species        H
  #     global species definitions
      nucleus             1
      cut_pot             4.0  2.0  1.0
      cut_free_atom       finite 8.0
      logarithmic         0.00010000 100.00  1.0123
      basis_dep_cutoff    1d-4  # 1d-4 is safe default - please check 5d-4 if you wish!
      radial_base         24 7.0
      radial_multiplier   2
      angular_grids       specified
        division   0.2783  110
        division   0.3822  194
        division   0.5626  302
  #      division   0.5922  434
  #      division   0.6227  590
  #      division   0.7206  770
        outer_grid  302
      l_hartree           4
  ################################################################################
  #
  #  Definition of "minimal" basis
  #
  ################################################################################
  #     valence basis states
      valence      1  s   1.
  #     ion occupancy
      ion_occ      1  s   0.5
  ################################################################################
  #
  #  Suggested additional basis functions. For production calculations,
  #  uncomment them one after another (the most important basis functions are
  #  listed first).
  #
  ################################################################################
  #  "First tier" - improvements: -1014.90 meV to -62.69 meV
       hydro 2 s 2.1
       hydro 2 p 3.5
  #  "Second tier" - improvements: -12.89 meV to -1.83 meV
       hydro 1 s 0.85
       hydro 2 p 3.7
       hydro 2 s 1.2
       hydro 3 d 7
  #  "Third tier" - improvements: -0.25 meV to -0.12 meV
  #     hydro 4 f 11.2
  #     hydro 3 p 4.8
  #     hydro 4 d 9
  #     hydro 3 s 3.2
  
  ################################################################################
  #
  #  FHI-aims code project
  #  VB, Fritz-Haber Institut, 2007
  #
  #  Suggested "safe" defaults for O atom (to be pasted into control.in file)
  #  All values have been tested for a non-relativistic, non-spinpolarized O2
  #  molecule using the PW-LDA functional. Validity for PBE is expected.
  #
  #  Constructed for dimers: 1.0 A, 1.208 A, 1.5 A, 2.0 A, 3.0 A
  #
  ################################################################################
    species        O
  #     global species definitions
      nucleus             8
      mass                15.9994
      l_hartree           4
      cut_pot             4.0  2.0  1.0
      cut_free_atom       finite 8.0
      basis_dep_cutoff    1d-4  # 1d-4 is safe default - please check 5d-4 if you wish!
      logarithmic         0.00010000 100.00  1.0123
      radial_base         36 7.0
      radial_multiplier   2
       angular_grids specified
        division   0.4087  110
        division   0.5181  194
        division   0.6184  302
  #      division   0.7315  434
  #      division   0.7934  590
  #      division   0.9656  770
  #      division   1.4041  974
  #      outer_grid 974
        outer_grid 302
  ################################################################################
  #
  #  Definition of "minimal" basis
  #
  ################################################################################
  #     valence basis states
      valence      2  s   2.
      valence      2  p   4.
  #     ion occupancy
      ion_occ      2  s   1.
      ion_occ      2  p   3.
  ################################################################################
  #
  #  Suggested additional basis functions. For production calculations,
  #  uncomment them one after another (the most important basis functions are
  #  listed first).
  #
  ################################################################################
  #  "First tier" - improvements: -699.05 meV to -159.38 meV
       hydro 2 p 1.8
       hydro 3 d 7.6
       hydro 3 s 6.4
  #  "Second tier" - improvements: -49.91 meV to -5.39 meV
       hydro 4 f 11.6
       hydro 3 p 6.2
       hydro 3 d 5.6
       hydro 5 g 17.6
       hydro 1 s 0.75
  #  "Third tier" - improvements: -2.83 meV to -0.50 meV
  #     ionic 2 p auto
  #     hydro 4 f 10.8
  #     hydro 4 d 4.7
  #     hydro 2 s 6.8
  #  "Fourth tier" - improvements: -0.40 meV to -0.12 meV
  #     hydro 3 p 5
  #     hydro 3 s 3.3
  #     hydro 5 g 15.6
  #     hydro 4 f 17.6
  #     hydro 4 d 14
  # Further basis functions - -0.08 meV and below
  #     hydro 3 s 2.1
  #     hydro 4 d 11.6
  #     hydro 3 p 16
  #     hydro 2 s 17.2
  
  
  -----------------------------------------------------------------------
  Completed first pass over input file control.in .
  -----------------------------------------------------------------------
  
  
  -----------------------------------------------------------------------
  Parsing geometry.in (first pass over file, find array dimensions only).
  The contents of geometry.in will be repeated verbatim below
  unless switched off by setting 'verbatim_writeout .false.' .
  in the first line of geometry.in .
  -----------------------------------------------------------------------
  
  atom      -4.053030000      0.065001000     -1.525160000  O
  atom      -4.566710000      0.974813000     -1.912820000  H
  atom      -3.067820000      0.330172000     -1.477310000  H
  atom      -4.370360000     -0.049164000     -0.572274000  H
  atom      -5.293160000      2.192130000     -2.328800000  O
  atom      -4.829300000      2.988660000     -1.973850000  H
  atom      -5.428570000      2.328640000     -3.235170000  H
  atom      -1.645860000      0.870179000     -1.502250000  O
  atom      -1.568890000      1.501730000     -0.721051000  H
  atom      -0.824432000      0.282220000     -1.377720000  H
  atom      -3.818880000      2.024990000      2.187990000  O
  atom      -3.690880000      1.961360000      3.202150000  H
  atom      -4.546490000      2.751300000      2.045370000  H
  atom      -4.066610000      4.258280000     -0.900064000  O
  atom      -3.224110000      3.876870000     -0.569443000  H
  atom      -3.737450000      5.116530000     -1.322720000  H
  
  -----------------------------------------------------------------------
  Completed first pass over input file geometry.in .
  -----------------------------------------------------------------------
  
 
  Basic array size parameters: 
  | Number of species                 :        2
  | Number of atoms                   :       16
  | Max. basis fn. angular momentum   :        4
  | Max. atomic/ionic basis occupied n:        2
  | Max. number of basis fn. types    :        2
  | Max. radial fns per species/type  :        8
  | Max. logarithmic grid size        :     1301
  | Max. radial integration grid size :       73
  | Max. angular integration grid size:      302
  | Max. angular grid division number :        8
  | Radial grid for Hartree potential :     1301
  | Number of spin channels           :        1

------------------------------------------------------------
          Reading file control.in.
------------------------------------------------------------
  XC: Using RPBE gradient-corrected functionals.
  Spin treatment: No spin polarisation.
  Scalar relativistic treatment of kinetic energy: on-site free-atom approximation to ZORA.
  Charge =   0.000000E+00: Neutral system requested explicitly.
  Using non-empirical van der Waals correction (Hirshfeld partitioning):
  Occupation type: Gaussian broadening, width =   0.100000E-01 eV.
  Using pulay charge density mixing.
  Pulay mixing - number of memorized iterations:   10
  Charge density mixing - mixing parameter:     0.1000
  Convergence accuracy of self-consistent charge density: 0.5000E-04
  Convergence accuracy of sum of eigenvalues: 0.5000E-02
  Convergence accuracy of total energy: 0.5000E-05
  Maximum number of s.-c. iterations  :  3000
  Kohn-Sham eigenvalues and eigenfunctions calculated by lapack diagonalisation (D&C).
  Number of empty states per atom:        8
  Threshold for basis singularities: 0.0000E+00
  Partition function in integrals calculations: rho / r^2
 Using packed matrix format           0
  Convergence accuracy of forces: 0.5000E-03
  Cleaning forces before final output.
  Hirshfeld charge analysis will be performed.
 
  Reading configuration options for species H                   .
  | Found nuclear charge :   1.0000
  | Found cutoff potl. onset [A], width [A], scale factor :    4.00000    2.00000    1.00000
  | Found cutoff specification for free atom: Cutoff potential begins at    8.00000 A.
  | Found logarithmic grid data [bohr] : 0.1000E-03 0.1000E+03 0.1012E+01
  | Threshold for basis-dependent cutoff potential is   0.100000E-03
  | Found data for basic radial integration grid :    24 points, outermost radius =    7.000 A
  | Found multiplier for basic radial grid :   2
  | Found angular grid specification: user-specified.
  | Specified grid contains     4 separate shells.
  | Check grid settings after all constraints further below.
  | Found l_max for Hartree potential  :   4
  | Found free-atom valence shell :  1 s   1.000
  | No ionic wave fns used. Skipping ion_occ.
  | Found hydrogenic basis function :  2 s   2.100
  | Found hydrogenic basis function :  2 p   3.500
  | Found hydrogenic basis function :  1 s   0.850
  | Found hydrogenic basis function :  2 p   3.700
  | Found hydrogenic basis function :  2 s   1.200
  | Found hydrogenic basis function :  3 d   7.000
  Species H                   : Missing cutoff potential type.
  Defaulting to exp(1/x)/(1-x)^2 type cutoff potential.
  Species H : On-site basis accuracy parameter (for Gram-Schmidt orthonormalisation) not specified.
  Using default value basis_acc =  0.1000000E-03.
  Species H                   : Using default innermost maximum threshold i_radial=  2 for radial functions.
  Species H                   : Basic radial grid will be enhanced according to radial_multiplier =   2, to contain    49 grid points.
 
  Reading configuration options for species O                   .
  | Found nuclear charge :   8.0000
  | Found atomic mass :    15.9994000000000      amu
  | Found l_max for Hartree potential  :   4
  | Found cutoff potl. onset [A], width [A], scale factor :    4.00000    2.00000    1.00000
  | Found cutoff specification for free atom: Cutoff potential begins at    8.00000 A.
  | Threshold for basis-dependent cutoff potential is   0.100000E-03
  | Found logarithmic grid data [bohr] : 0.1000E-03 0.1000E+03 0.1012E+01
  | Found data for basic radial integration grid :    36 points, outermost radius =    7.000 A
  | Found multiplier for basic radial grid :   2
  | Found angular grid specification: user-specified.
  | Specified grid contains     4 separate shells.
  | Check grid settings after all constraints further below.
  | Found free-atom valence shell :  2 s   2.000
  | Found free-atom valence shell :  2 p   4.000
  | No ionic wave fns used. Skipping ion_occ.
  | No ionic wave fns used. Skipping ion_occ.
  | Found hydrogenic basis function :  2 p   1.800
  | Found hydrogenic basis function :  3 d   7.600
  | Found hydrogenic basis function :  3 s   6.400
  | Found hydrogenic basis function :  4 f  11.600
  | Found hydrogenic basis function :  3 p   6.200
  | Found hydrogenic basis function :  3 d   5.600
  | Found hydrogenic basis function :  5 g  17.600
  | Found hydrogenic basis function :  1 s   0.750
  Species O                   : Missing cutoff potential type.
  Defaulting to exp(1/x)/(1-x)^2 type cutoff potential.
  Species O : On-site basis accuracy parameter (for Gram-Schmidt orthonormalisation) not specified.
  Using default value basis_acc =  0.1000000E-03.
  Species O                   : Using default innermost maximum threshold i_radial=  2 for radial functions.
  Species O                   : Basic radial grid will be enhanced according to radial_multiplier =   2, to contain    73 grid points.
 
  Finished reading input file 'control.in'. Consistency checks are next.
 
  Target number of points in a grid batch is not set. Defaulting to  100
  Method for grid partitioning is not set. Defaulting to parallel hash+maxmin partitioning.
  Batch size limit is not set. Defaulting to    200
  By default, will store active basis functions for each batch.
  If in need of memory, prune_basis_once .false. can be used to disable this option.
  communication_type for Hartree potential was not specified.
  Defaulting to calc_hartree .
  Pulay mixer: Number of initial linear mixing iterations not set.
  Defaulting to    0 iterations.
  Work space size for distributed Hartree potential not set.
  Defaulting to   0.200000E+03 MB.
  Algorithm-dependent basis array size parameters:
  | n_max_pulay                         :       10
  Geometry relaxation not requested: no relaxation will be performed.
  Handling of forces: Unphysical translation and rotation will be removed from forces.
  No accuracy limit for integral partition fn. given. Defaulting to 0.1000E-14.
  No threshold value for u(r) in integrations given. Defaulting to 0.1000E-05.
  No accuracy for occupation numbers given. Defaulting to 0.1000E-07.
  No threshold value for occupation numbers given. Defaulting to 0.0000E+00.
  No accuracy for fermi level given. Defaulting to 0.1000E-19.
  Maximum # of iterations to find E_F not set. Defaulting to  200.
  Will not use alltoall communication since running on < 1024 CPUs.
  Partitioning for Hartree potential was not defined. Using partition_type for integrals.
  | Reporting present value of keyword multip_moments_threshold  :       0.10000000E-09
  | This value may affect high angular momentum components of the Hartree potential in periodic systems.
  No q(lm)/r^(l+1) cutoff set for long-range Hartree potential.
  | Using default value of  0.100000E-09 .
  | Verify using the multipole_threshold keyword.
  Defaulting to new monopole extrapolation.
  Density update method: Loop over occupied states selected for charge density update.
------------------------------------------------------------


------------------------------------------------------------
          Reading geometry description geometry.in.
------------------------------------------------------------
  Input structure read successfully.
  The structure contains       16 atoms,  and a total of         51.000 electrons.

  Input geometry:
  | No unit cell requested.
  | Atomic structure:
  |       Atom                x [A]            y [A]            z [A]
  |    1: Species O             -4.053030         0.065001        -1.525160
  |    2: Species H             -4.566710         0.974813        -1.912820
  |    3: Species H             -3.067820         0.330172        -1.477310
  |    4: Species H             -4.370360        -0.049164        -0.572274
  |    5: Species O             -5.293160         2.192130        -2.328800
  |    6: Species H             -4.829300         2.988660        -1.973850
  |    7: Species H             -5.428570         2.328640        -3.235170
  |    8: Species O             -1.645860         0.870179        -1.502250
  |    9: Species H             -1.568890         1.501730        -0.721051
  |   10: Species H             -0.824432         0.282220        -1.377720
  |   11: Species O             -3.818880         2.024990         2.187990
  |   12: Species H             -3.690880         1.961360         3.202150
  |   13: Species H             -4.546490         2.751300         2.045370
  |   14: Species O             -4.066610         4.258280        -0.900064
  |   15: Species H             -3.224110         3.876870        -0.569443
  |   16: Species H             -3.737450         5.116530        -1.322720
  |

  | The smallest distance between any two atoms is         0.92654057 AA.
  |
  | The first atom of this pair is atom number                      5 .
  | The second atom of this pair is atom number                     7 .

  Structure-dependent array size parameters: 
  | Maximum number of distinct radial functions  :       18
  | Maximum number of basis functions            :      360
  | Number of Kohn-Sham states (occupied + empty):       90
------------------------------------------------------------

------------------------------------------------------------
          Preparing all fixed parts of the calculation.
------------------------------------------------------------
  Determining machine precision:
    2.225073858507201E-308
  Setting up grids for atomic and cluster calculations.

  Creating wave function, potential, and density for free atoms.

  Species: H

  List of occupied orbitals and eigenvalues:
    n    l              occ      energy [Ha]    energy [eV]
    1    0           1.0000        -0.241408        -6.5691


  Species: O

  List of occupied orbitals and eigenvalues:
    n    l              occ      energy [Ha]    energy [eV]
    1    0           2.0000       -18.944147      -515.4965
    2    0           2.0000        -0.883529       -24.0421
    2    1           4.0000        -0.330176        -8.9845

  Creating fixed part of basis set: Ionic, confined, hydrogenic.
 
  H                    hydrogenic:
 
  List of hydrogenic basis orbitals: 
    n    l      effective z      eigenvalue [eV]  inner max. [A]     outer max. [A]     outer radius [A]   
    2    0         2.100000       -14.9965           0.193241           1.317192           5.372934
    2    1         3.500000       -41.6672           0.602363           0.602363           4.056010
    1    0         0.850000        -9.8292           0.624864           0.624864           5.372934
    2    1         3.700000       -46.5653           0.573616           0.573616           3.909951
    2    0         1.200000        -4.5995           0.334977           2.228160           5.505921
    3    2         7.000000       -74.0753           0.680692           0.680692           3.769152
 
 
  O                    hydrogenic:
 
  List of hydrogenic basis orbitals: 
    n    l      effective z      eigenvalue [eV]  inner max. [A]     outer max. [A]     outer radius [A]   
    2    1         1.800000       -11.0118           1.178546           1.178546           5.432516
    3    2         7.600000       -87.3182           0.624117           0.624117           3.541422
    3    0         6.400000       -61.9209           0.061166           1.081887           4.306510
    4    3        11.600000      -114.4238           0.731621           0.731621           3.584982
    3    1         6.200000       -58.1113           0.255677           1.030255           4.306510
    3    2         5.600000       -47.4081           0.847222           0.847222           4.413102
    5    4        17.600000      -168.5799           0.749730           0.749730           3.372413
    1    0         0.750000        -7.6499           0.705275           0.705275           5.366508
 

  Adding cutoff potential to free-atom effective potential.
  Creating atomic-like basis functions for current effective potential.

  Species H                   :

  List of atomic basis orbitals and eigenvalues:
    n    l      energy [Ha]    energy [eV]    outer radius [A]
    1    0        -0.241374        -6.5681       5.372934


  Species O                   :

  List of atomic basis orbitals and eigenvalues:
    n    l      energy [Ha]    energy [eV]    outer radius [A]
    1    0       -18.944147      -515.4965       1.415745
    2    0        -0.883529       -24.0421       5.048305
    2    1        -0.330173        -8.9845       5.301302

  Assembling full basis from fixed parts.
  | Species H :   atomic orbital   1 s accepted.
  | Species H :    hydro orbital   2 s accepted.
  | Species H :    hydro orbital   1 s accepted.
  | Species H :    hydro orbital   2 s accepted.
  | Species H :    hydro orbital   2 p accepted.
  | Species H :    hydro orbital   2 p accepted.
  | Species H :    hydro orbital   3 d accepted.
  | Species O :   atomic orbital   1 s accepted.
  | Species O :    hydro orbital   3 s accepted.
  | Species O :   atomic orbital   2 s accepted.
  | Species O :    hydro orbital   1 s accepted.
  | Species O :    hydro orbital   3 p accepted.
  | Species O :   atomic orbital   2 p accepted.
  | Species O :    hydro orbital   2 p accepted.
  | Species O :    hydro orbital   3 d accepted.
  | Species O :    hydro orbital   3 d accepted.
  | Species O :    hydro orbital   4 f accepted.
  | Species O :    hydro orbital   5 g accepted.
 
  Basis size parameters after reduction:
  | Total number of radial functions:       18
  | Total number of basis functions :      360
 
  Testing on-site integration grid accuracy.
  |  Species  Function  <phi|h_atom|phi> (log., in eV)  <phi|h_atom|phi> (rad., in eV)
           1        1                 -6.5683835025                 -6.5684759159
           1        2                 13.3711789951                 13.3708738703
           1        3                 23.6590910787                 23.6532055418
           1        4                 16.2963827186                 16.1870710655 ***
           1        5                 28.7627214838                 28.7627215090
           1        6                 59.5965249172                 59.5965950857
           1        7                 60.2220506392                 60.2220503827
           2        8               -515.4964576505               -515.4964530710
           2        9                 15.3030791347                 15.3030722972
           2       10                -21.7296094581                -21.7296135470
           2       11                 14.2969371730                 14.2969701621
           2       12                 21.0679693190                 21.0679697493
           2       13                 -2.3833606469                 -2.3833613176
           2       14                 13.7067136422                 13.7066766629
           2       15                 45.8013116808                 45.8013116965
           2       16                 52.2309815402                 52.2309831494
           2       17                 85.4120732416                 85.4120732763
           2       18                142.1019167745                142.1019167817
 * Note: Onsite integrals marked "***" above are less accurate than
 * onsite_accuracy_threshold =    0.03000 eV. Usually, this is harmless.
 * When in doubt, tighten the "radial" and/or "radial_multiplier" flags to check.

  Preparing densities etc. for the partition functions (integrals / Hartree potential).

  Preparations completed.
  max(cpu_time)          :      0.174 s.
  Wall clock time (cpu1) :      0.480 s.
------------------------------------------------------------

------------------------------------------------------------
          Begin self-consistency loop: Initialization.

          Date     :  20150727, Time     :  123751.609
------------------------------------------------------------

  Initializing index lists of integration centers etc. from given atomic structure:
  | Number of centers in hartree potential         :        16
  | Number of centers in hartree multipole         :        16
  | Number of centers in electron density summation:        16
  | Number of centers in basis integrals           :        16
  | Number of centers in integrals                 :        16
  Partitioning the integration grid into batches with parallel hashing+maxmin method.
  | Number of batches:     2080
  | Maximal batch size:     181
  | Minimal batch size:      49
  | Average batch size:     100.146
  | Standard deviation of batch sizes:      28.999

  Integration load balanced across     8 MPI tasks.
  Work distribution over tasks is as follows:
  Task     0 has      26066 integration points.
  Task     1 has      26164 integration points.
  Task     2 has      26057 integration points.
  Task     3 has      25997 integration points.
  Task     4 has      25988 integration points.
  Task     5 has      26012 integration points.
  Task     6 has      26004 integration points.
  Task     7 has      26016 integration points.
  Initializing partition tables, free-atom densities, potentials, etc. across the integration grid (initialize_grid_storage).
  | Net number of integration points:   208304
  | of which are non-zero points    :   207753
  Obtaining max. number of non-zero basis functions in each batch (get_n_compute_maxes).
  | Maximal number of non-zero basis functions:      356 in task     0
  | Maximal number of non-zero basis functions:      356 in task     1
  | Maximal number of non-zero basis functions:      357 in task     2
  | Maximal number of non-zero basis functions:      356 in task     3
  | Maximal number of non-zero basis functions:      356 in task     4
  | Maximal number of non-zero basis functions:      357 in task     5
  | Maximal number of non-zero basis functions:      357 in task     6
  | Maximal number of non-zero basis functions:      356 in task     7
  Integrating Hamiltonian matrix: batch-based integration.
  Time summed over all CPUs for integration: real work        8.020 s, elapsed        8.185 s
  Integrating overlap matrix.
  Time summed over all CPUs for integration: real work        4.315 s, elapsed        4.381 s

  Updating Kohn-Sham eigenvalues, eigenvectors, occupation numbers, and Fermi level.
  Solving generalized eigenproblem
  Updating Kohn-Sham eigenvalues and eigenfunctions.
  Transforming overlap matrix and checking for singularities.
  Overlap matrix is nonsingular:
  | Lowest eigenvalue:  0.236963E-03
  Solving real generalised eigenvalue problem by standard LAPACK (fast)
  Determining occupation numbers for Kohn-Sham eigenstates.
  | Chemical potential (Fermi level) in eV                 : -.28456721E+01
  | Error in electron count due to remaining E_F inaccuracy: 0.85265128E-13
  | Maximum occupation number of highest empty state:  0.00E+00

  Writing Kohn-Sham eigenvalues.

  State    Occupation    Eigenvalue [Ha]    Eigenvalue [eV]
      1       2.00000         -19.065148         -518.78906
      2       2.00000         -19.064963         -518.78403
      3       2.00000         -19.042872         -518.18291
      4       2.00000         -19.042490         -518.17252
      5       2.00000         -19.028698         -517.79721
      6       2.00000          -1.129539          -30.73633
      7       2.00000          -1.115109          -30.34366
      8       2.00000          -1.086698          -29.57057
      9       2.00000          -1.081738          -29.43559
     10       2.00000          -1.060091          -28.84655
     11       2.00000          -0.653818          -17.79128
     12       2.00000          -0.639925          -17.41325
     13       2.00000          -0.622820          -16.94781
     14       2.00000          -0.606300          -16.49826
     15       2.00000          -0.602295          -16.38928
     16       2.00000          -0.590417          -16.06606
     17       2.00000          -0.534649          -14.54853
     18       2.00000          -0.513109          -13.96240
     19       2.00000          -0.505387          -13.75227
     20       2.00000          -0.488049          -13.28049
     21       2.00000          -0.485240          -13.20406
     22       2.00000          -0.452869          -12.32319
     23       2.00000          -0.435825          -11.85941
     24       2.00000          -0.433622          -11.79944
     25       2.00000          -0.417470          -11.35995
     26       1.00000          -0.104577           -2.84567
     27       0.00000          -0.071283           -1.93972
     28       0.00000          -0.066048           -1.79726
     29       0.00000          -0.058778           -1.59942
     30       0.00000          -0.032323           -0.87955
     31       0.00000          -0.019002           -0.51707
     32       0.00000          -0.012883           -0.35056
     33       0.00000           0.024976            0.67963
     34       0.00000           0.035660            0.97035
     35       0.00000           0.040142            1.09232
     36       0.00000           0.055330            1.50561
     37       0.00000           0.067407            1.83424
     38       0.00000           0.074560            2.02888
     39       0.00000           0.081861            2.22756
     40       0.00000           0.088731            2.41449
     41       0.00000           0.097766            2.66034
     42       0.00000           0.103091            2.80525
     43       0.00000           0.108655            2.95664
     44       0.00000           0.112560            3.06291
     45       0.00000           0.126116            3.43180
     46       0.00000           0.129169            3.51486
     47       0.00000           0.134309            3.65472
     48       0.00000           0.141438            3.84872
     49       0.00000           0.142921            3.88908
     50       0.00000           0.156578            4.26071
     51       0.00000           0.169811            4.62079
     52       0.00000           0.186427            5.07293
     53       0.00000           0.198447            5.40001
     54       0.00000           0.213700            5.81507
     55       0.00000           0.238037            6.47732
     56       0.00000           0.245726            6.68653
     57       0.00000           0.248040            6.74950
     58       0.00000           0.260934            7.10037
     59       0.00000           0.270086            7.34942
     60       0.00000           0.291316            7.92711
     61       0.00000           0.299994            8.16325
     62       0.00000           0.337817            9.19248
     63       0.00000           0.343711            9.35285
     64       0.00000           0.352179            9.58327
     65       0.00000           0.361770            9.84427
     66       0.00000           0.367114            9.98969
     67       0.00000           0.379062           10.31481
     68       0.00000           0.388750           10.57842
     69       0.00000           0.407781           11.09629
     70       0.00000           0.413920           11.26333
     71       0.00000           0.424843           11.56056
     72       0.00000           0.435447           11.84910
     73       0.00000           0.441398           12.01105
     74       0.00000           0.452007           12.29973
     75       0.00000           0.464979           12.65273
     76       0.00000           0.471782           12.83785
     77       0.00000           0.497143           13.52795
     78       0.00000           0.514137           13.99037
     79       0.00000           0.519357           14.13242
     80       0.00000           0.540063           14.69588
     81       0.00000           0.564947           15.37298
     82       0.00000           0.566748           15.42200
     83       0.00000           0.589650           16.04519
     84       0.00000           0.613011           16.68089
     85       0.00000           0.633261           17.23190
     86       0.00000           0.681035           18.53192
     87       0.00000           0.710625           19.33708
     88       0.00000           0.714509           19.44278
     89       0.00000           0.741337           20.17281
     90       0.00000           0.752053           20.46441

  Highest occupied state (VBM) at     -2.84567211 eV
  | Occupation number:      1.00000000

  Lowest unoccupied state (CBM) at    -1.93972061 eV
  | Occupation number:      0.00000000

  Overall HOMO-LUMO gap:      0.90595150 eV.
  Calculating total energy contributions from superposition of free atom densities.

  Total energy components:
  | Sum of eigenvalues            :        -217.50285682 Ha       -5918.55386690 eV
  | XC energy correction          :         -45.91935828 Ha       -1249.52931421 eV
  | XC potential correction       :          58.68468749 Ha        1596.89159550 eV
  | Free-atom electrostatic energy:        -178.79404097 Ha       -4865.23339506 eV
  | Hartree energy correction     :           0.00000000 Ha           0.00000000 eV
  | van der Waals energy corr.    :           0.00000000 Ha           0.00000000 eV
  | Entropy correction            :          -0.00010367 Ha          -0.00282095 eV
  | ---------------------------
  | Total energy                  :        -383.53156859 Ha      -10436.42498066 eV
  | Total energy, T -> 0          :        -383.53167225 Ha      -10436.42780160 eV  <-- do not rely on this value for anything but (periodic) metals
  | Electronic free energy        :        -383.53177592 Ha      -10436.43062255 eV

  Derived energy quantities:
  | Kinetic energy                :         379.83263844 Ha       10335.77197024 eV
  | Electrostatic energy          :        -717.44484874 Ha      -19522.66763669 eV
  | Energy correction for multipole
  | error in Hartree potential    :           0.00000000 Ha           0.00000000 eV
  | Sum of eigenvalues per atom                           :        -369.90961668 eV
  | Total energy (T->0) per atom                          :        -652.27673760 eV  <-- do not rely on this value for anything but (periodic) metals
  | Electronic free energy per atom                       :        -652.27691391 eV
  Initialize hartree_potential_storage
  Max. number of atoms included in rho_multipole:           16

  End scf initialization - timings             :  max(cpu_time)    wall_clock(cpu1)
  | Time for scf. initialization               :        2.226 s           2.225 s
  | Boundary condition initialization          :        0.000 s           0.000 s
  | Integration                                :        1.575 s           1.575 s
  | Solution of K.-S. eqns.                    :        0.213 s           0.213 s
  | Grid partitioning                          :        0.199 s           0.199 s
  | Preloading free-atom quantities on grid    :        0.013 s           0.013 s
  | Free-atom superposition energy             :        0.073 s           0.073 s
  | Total energy evaluation                    :        0.001 s           0.000 s
------------------------------------------------------------

------------------------------------------------------------
          Begin self-consistency iteration #    1

  Date     :  20150727, Time     :  123753.835
------------------------------------------------------------
  Evaluating new KS density.
  Integration grid: deviation in total charge (<rho> - N_e) =   9.237056E-14
  Pulay mixing of updated and previous charge densities.

  Evaluating partitioned Hartree potential by multipole expansion.
  | Analytical far-field extrapolation by fixed multipoles:
  | Hartree multipole sum: apparent total charge =  -0.135306E-05
  Summing up the Hartree potential.
  Time summed over all CPUs for potential: real work        2.893 s, elapsed        2.908 s
  | RMS charge density error from multipole expansion :   0.161562E-02

  Integrating Hamiltonian matrix: batch-based integration.
  Time summed over all CPUs for integration: real work        8.020 s, elapsed        8.199 s

  Updating Kohn-Sham eigenvalues, eigenvectors, occupation numbers, and Fermi level.
  Solving generalized eigenproblem
  Updating Kohn-Sham eigenvalues and eigenfunctions.
  Solving real generalised eigenvalue problem by standard LAPACK (fast)
  Determining occupation numbers for Kohn-Sham eigenstates.
  | Chemical potential (Fermi level) in eV                 : -.26113836E+01
  | Error in electron count due to remaining E_F inaccuracy: -.26454856E-08
  | Maximum occupation number of highest empty state:  0.00E+00

  Writing Kohn-Sham eigenvalues.

  State    Occupation    Eigenvalue [Ha]    Eigenvalue [eV]
      1       2.00000         -19.011867         -517.33921
      2       2.00000         -18.994357         -516.86274
      3       2.00000         -18.974916         -516.33374
      4       2.00000         -18.967680         -516.13684
      5       2.00000         -18.950078         -515.65786
      6       2.00000          -1.101927          -29.98497
      7       2.00000          -1.083342          -29.47924
      8       2.00000          -1.049370          -28.55481
      9       2.00000          -1.048596          -28.53374
     10       2.00000          -1.019419          -27.73981
     11       2.00000          -0.623998          -16.97985
     12       2.00000          -0.617668          -16.80760
     13       2.00000          -0.600142          -16.33070
     14       2.00000          -0.575321          -15.65527
     15       2.00000          -0.572915          -15.58980
     16       2.00000          -0.556087          -15.13190
     17       2.00000          -0.504067          -13.71636
     18       2.00000          -0.479897          -13.05866
     19       2.00000          -0.470045          -12.79057
     20       2.00000          -0.456838          -12.43118
     21       2.00000          -0.447831          -12.18609
     22       2.00000          -0.418440          -11.38633
     23       2.00000          -0.401907          -10.93644
     24       2.00000          -0.394374          -10.73147
     25       2.00000          -0.375146          -10.20826
     26       1.00000          -0.095967           -2.61138
     27       0.00000          -0.062240           -1.69363
     28       0.00000          -0.057947           -1.57681
     29       0.00000          -0.051502           -1.40145
     30       0.00000          -0.025665           -0.69839
     31       0.00000          -0.010760           -0.29279
     32       0.00000          -0.002749           -0.07481
     33       0.00000           0.034168            0.92975
     34       0.00000           0.042917            1.16784
     35       0.00000           0.048846            1.32916
     36       0.00000           0.059610            1.62208
     37       0.00000           0.074208            2.01931
     38       0.00000           0.081688            2.22284
     39       0.00000           0.091028            2.47699
     40       0.00000           0.098002            2.66678
     41       0.00000           0.104015            2.83040
     42       0.00000           0.111804            3.04234
     43       0.00000           0.115941            3.15492
     44       0.00000           0.124658            3.39212
     45       0.00000           0.136114            3.70384
     46       0.00000           0.136612            3.71739
     47       0.00000           0.142969            3.89039
     48       0.00000           0.149340            4.06374
     49       0.00000           0.153921            4.18841
     50       0.00000           0.164645            4.48021
     51       0.00000           0.177735            4.83641
     52       0.00000           0.194787            5.30042
     53       0.00000           0.205817            5.60057
     54       0.00000           0.221768            6.03461
     55       0.00000           0.245339            6.67602
     56       0.00000           0.252616            6.87403
     57       0.00000           0.255585            6.95483
     58       0.00000           0.268774            7.31372
     59       0.00000           0.277698            7.55655
     60       0.00000           0.297721            8.10139
     61       0.00000           0.305363            8.30936
     62       0.00000           0.346846            9.43816
     63       0.00000           0.351944            9.57688
     64       0.00000           0.358986            9.76852
     65       0.00000           0.369734           10.06098
     66       0.00000           0.373556           10.16498
     67       0.00000           0.387081           10.53302
     68       0.00000           0.397188           10.80804
     69       0.00000           0.415822           11.31510
     70       0.00000           0.420997           11.45590
     71       0.00000           0.433235           11.78893
     72       0.00000           0.443920           12.07968
     73       0.00000           0.449465           12.23057
     74       0.00000           0.461641           12.56189
     75       0.00000           0.473505           12.88473
     76       0.00000           0.480014           13.06183
     77       0.00000           0.506006           13.76913
     78       0.00000           0.523717           14.25106
     79       0.00000           0.532065           14.47823
     80       0.00000           0.550271           14.97363
     81       0.00000           0.573002           15.59218
     82       0.00000           0.576558           15.68895
     83       0.00000           0.599596           16.31584
     84       0.00000           0.622251           16.93232
     85       0.00000           0.644068           17.52599
     86       0.00000           0.691481           18.81616
     87       0.00000           0.722595           19.66280
     88       0.00000           0.726512           19.76939
     89       0.00000           0.750911           20.43332
     90       0.00000           0.762062           20.73675

  Highest occupied state (VBM) at    -10.20825561 eV
  | Occupation number:      2.00000000

  Lowest unoccupied state (CBM) at    -2.61138364 eV
  | Occupation number:      1.00000000

  Overall HOMO-LUMO gap:      7.59687197 eV.

  Total energy components:
  | Sum of eigenvalues            :        -215.48842042 Ha       -5863.73826326 eV
  | XC energy correction          :         -46.13665237 Ha       -1255.44218715 eV
  | XC potential correction       :          58.96868990 Ha        1604.61969436 eV
  | Free-atom electrostatic energy:        -178.79404097 Ha       -4865.23339506 eV
  | Hartree energy correction     :          -1.96382742 Ha         -53.43846295 eV
  | van der Waals energy corr.    :           0.00000000 Ha           0.00000000 eV
  | Entropy correction            :          -0.00010367 Ha          -0.00282095 eV
  | ---------------------------
  | Total energy                  :        -383.41425127 Ha      -10433.23261406 eV
  | Total energy, T -> 0          :        -383.41435494 Ha      -10433.23543501 eV  <-- do not rely on this value for anything but (periodic) metals
  | Electronic free energy        :        -383.41445860 Ha      -10433.23825595 eV

  Derived energy quantities:
  | Kinetic energy                :         381.14635182 Ha       10371.51993007 eV
  | Electrostatic energy          :        -718.42395072 Ha      -19549.31035698 eV
  | Energy correction for multipole
  | error in Hartree potential    :           0.00017687 Ha           0.00481285 eV
  | Sum of eigenvalues per atom                           :        -366.48364145 eV
  | Total energy (T->0) per atom                          :        -652.07721469 eV  <-- do not rely on this value for anything but (periodic) metals
  | Electronic free energy per atom                       :        -652.07739100 eV

  Self-consistency convergence accuracy:
  | Change of charge density      : 0.6254E+00
  | Change of sum of eigenvalues  : 0.5482E+02 eV
  | Change of total energy        : 0.3192E+01 eV

  End self-consistency iteration #     1       :  max(cpu_time)    wall_clock(cpu1)
  | Time for this iteration                    :        2.137 s           2.136 s
  | Charge density update                      :        0.679 s           0.678 s
  | Density mixing                             :        0.004 s           0.004 s
  | Hartree multipole update                   :        0.005 s           0.005 s
  | Hartree multipole summation                :        0.364 s           0.365 s
  | Integration                                :        1.027 s           1.026 s
  | Solution of K.-S. eqns.                    :        0.057 s           0.057 s
  | Total energy evaluation                    :        0.000 s           0.001 s
------------------------------------------------------------

------------------------------------------------------------
          Begin self-consistency iteration #    2

  Date     :  20150727, Time     :  123755.971
------------------------------------------------------------
  Evaluating new KS density.
  Integration grid: deviation in total charge (<rho> - N_e) =  -2.645450E-09
  Pulay mixing of updated and previous charge densities.

  Evaluating partitioned Hartree potential by multipole expansion.
  | Analytical far-field extrapolation by fixed multipoles:
  | Hartree multipole sum: apparent total charge =  -0.422006E-05
  Summing up the Hartree potential.
  Time summed over all CPUs for potential: real work        2.893 s, elapsed        2.908 s
  | RMS charge density error from multipole expansion :   0.647949E-02

  Integrating Hamiltonian matrix: batch-based integration.
  Time summed over all CPUs for integration: real work        7.999 s, elapsed        8.172 s

  Updating Kohn-Sham eigenvalues, eigenvectors, occupation numbers, and Fermi level.
  Solving generalized eigenproblem
  Updating Kohn-Sham eigenvalues and eigenfunctions.
  Solving real generalised eigenvalue problem by standard LAPACK (fast)
  Determining occupation numbers for Kohn-Sham eigenstates.
  | Chemical potential (Fermi level) in eV                 : -.20659902E+01
  | Error in electron count due to remaining E_F inaccuracy: 0.00000000E+00
  | Maximum occupation number of highest empty state:  0.00E+00

  Highest occupied state (VBM) at     -2.06599025 eV
  | Occupation number:      1.00000000

  Lowest unoccupied state (CBM) at    -2.06599025 eV
  | Occupation number:      1.00000000

  Overall HOMO-LUMO gap:      0.00000000 eV.

  Total energy components:
  | Sum of eigenvalues            :        -210.76398833 Ha       -5735.17992521 eV
  | XC energy correction          :         -46.67261937 Ha       -1270.02659129 eV
  | XC potential correction       :          59.66770700 Ha        1623.64091739 eV
  | Free-atom electrostatic energy:        -178.79404097 Ha       -4865.23339506 eV
  | Hartree energy correction     :          -6.72157341 Ha        -182.90331850 eV
  | van der Waals energy corr.    :           0.00000000 Ha           0.00000000 eV
  | Entropy correction            :          -0.00010367 Ha          -0.00282095 eV
  | ---------------------------
  | Total energy                  :        -383.28451508 Ha      -10429.70231267 eV
  | Total energy, T -> 0          :        -383.28461875 Ha      -10429.70513362 eV  <-- do not rely on this value for anything but (periodic) metals
  | Electronic free energy        :        -383.28472241 Ha      -10429.70795456 eV

  Derived energy quantities:
  | Kinetic energy                :         383.82051833 Ha       10444.28770338 eV
  | Electrostatic energy          :        -720.43241404 Ha      -19603.96342475 eV
  | Energy correction for multipole
  | error in Hartree potential    :          -0.00016493 Ha          -0.00448794 eV
  | Sum of eigenvalues per atom                           :        -358.44874533 eV
  | Total energy (T->0) per atom                          :        -651.85657085 eV  <-- do not rely on this value for anything but (periodic) metals
  | Electronic free energy per atom                       :        -651.85674716 eV

  Self-consistency convergence accuracy:
  | Change of charge density      : 0.4743E+00
  | Change of sum of eigenvalues  : 0.1286E+03 eV
  | Change of total energy        : 0.3530E+01 eV

  End self-consistency iteration #     2       :  max(cpu_time)    wall_clock(cpu1)
  | Time for this iteration                    :        2.125 s           2.125 s
  | Charge density update                      :        0.669 s           0.669 s
  | Density mixing                             :        0.006 s           0.006 s
  | Hartree multipole update                   :        0.005 s           0.005 s
  | Hartree multipole summation                :        0.364 s           0.364 s
  | Integration                                :        1.023 s           1.023 s
  | Solution of K.-S. eqns.                    :        0.057 s           0.057 s
  | Total energy evaluation                    :        0.001 s           0.000 s
------------------------------------------------------------

------------------------------------------------------------
          Begin self-consistency iteration #    3

  Date     :  20150727, Time     :  123758.096
------------------------------------------------------------
  Evaluating new KS density.
  Integration grid: deviation in total charge (<rho> - N_e) =  -7.105427E-15
  Pulay mixing of updated and previous charge densities.

  Evaluating partitioned Hartree potential by multipole expansion.
  | Analytical far-field extrapolation by fixed multipoles:
  | Hartree multipole sum: apparent total charge =  -0.466340E-05
  Summing up the Hartree potential.
  Time summed over all CPUs for potential: real work        2.893 s, elapsed        2.907 s
  | RMS charge density error from multipole expansion :   0.136829E-01

  Integrating Hamiltonian matrix: batch-based integration.
  Time summed over all CPUs for integration: real work        8.002 s, elapsed        8.165 s

  Updating Kohn-Sham eigenvalues, eigenvectors, occupation numbers, and Fermi level.
  Solving generalized eigenproblem
  Updating Kohn-Sham eigenvalues and eigenfunctions.
  Solving real generalised eigenvalue problem by standard LAPACK (fast)
  Determining occupation numbers for Kohn-Sham eigenstates.
  | Chemical potential (Fermi level) in eV                 : -.19938618E+01
  | Error in electron count due to remaining E_F inaccuracy: 0.11935697E-09
  | Maximum occupation number of highest empty state:  0.00E+00

  Highest occupied state (VBM) at     -1.99386181 eV
  | Occupation number:      1.00000000

  Lowest unoccupied state (CBM) at    -1.08483400 eV
  | Occupation number:      0.00000000

  Overall HOMO-LUMO gap:      0.90902781 eV.

  Total energy components:
  | Sum of eigenvalues            :        -211.08501618 Ha       -5743.91553754 eV
  | XC energy correction          :         -46.66872205 Ha       -1269.92053974 eV
  | XC potential correction       :          59.65392429 Ha        1623.26587085 eV
  | Free-atom electrostatic energy:        -178.79404097 Ha       -4865.23339506 eV
  | Hartree energy correction     :          -6.38937120 Ha        -173.86363653 eV
  | van der Waals energy corr.    :           0.00000000 Ha           0.00000000 eV
  | Entropy correction            :          -0.00010367 Ha          -0.00282095 eV
  | ---------------------------
  | Total energy                  :        -383.28322611 Ha      -10429.66723801 eV
  | Total energy, T -> 0          :        -383.28332978 Ha      -10429.67005896 eV  <-- do not rely on this value for anything but (periodic) metals
  | Electronic free energy        :        -383.28343344 Ha      -10429.67287990 eV

  Derived energy quantities:
  | Kinetic energy                :         381.99116269 Ha       10394.50840366 eV
  | Electrostatic energy          :        -718.60566675 Ha      -19554.25510194 eV
  | Energy correction for multipole
  | error in Hartree potential    :          -0.00503440 Ha          -0.13699294 eV
  | Sum of eigenvalues per atom                           :        -358.99472110 eV
  | Total energy (T->0) per atom                          :        -651.85437868 eV  <-- do not rely on this value for anything but (periodic) metals
  | Electronic free energy per atom                       :        -651.85455499 eV

  Self-consistency convergence accuracy:
  | Change of charge density      : 0.2365E+00
  | Change of sum of eigenvalues  : -.8736E+01 eV
  | Change of total energy        : 0.3507E-01 eV

  End self-consistency iteration #     3       :  max(cpu_time)    wall_clock(cpu1)
  | Time for this iteration                    :        2.125 s           2.125 s
  | Charge density update                      :        0.669 s           0.668 s
  | Density mixing                             :        0.007 s           0.007 s
  | Hartree multipole update                   :        0.005 s           0.005 s
  | Hartree multipole summation                :        0.364 s           0.364 s
  | Integration                                :        1.023 s           1.022 s
  | Solution of K.-S. eqns.                    :        0.057 s           0.057 s
  | Total energy evaluation                    :        0.000 s           0.001 s
------------------------------------------------------------

------------------------------------------------------------
          Begin self-consistency iteration #    4

  Date     :  20150727, Time     :  123800.221
------------------------------------------------------------
  Evaluating new KS density.
  Integration grid: deviation in total charge (<rho> - N_e) =   1.193712E-10
  Pulay mixing of updated and previous charge densities.

  Evaluating partitioned Hartree potential by multipole expansion.
  | Analytical far-field extrapolation by fixed multipoles:
  | Hartree multipole sum: apparent total charge =  -0.537132E-05
  Summing up the Hartree potential.
  Time summed over all CPUs for potential: real work        2.892 s, elapsed        2.907 s
  | RMS charge density error from multipole expansion :   0.160456E-01

  Integrating Hamiltonian matrix: batch-based integration.
  Time summed over all CPUs for integration: real work        8.040 s, elapsed        8.165 s

  Updating Kohn-Sham eigenvalues, eigenvectors, occupation numbers, and Fermi level.
  Solving generalized eigenproblem
  Updating Kohn-Sham eigenvalues and eigenfunctions.
  Solving real generalised eigenvalue problem by standard LAPACK (fast)
  Determining occupation numbers for Kohn-Sham eigenstates.
  | Chemical potential (Fermi level) in eV                 : -.18888675E+01
  | Error in electron count due to remaining E_F inaccuracy: 0.20649793E-09
  | Maximum occupation number of highest empty state:  0.00E+00

  Highest occupied state (VBM) at     -1.88886751 eV
  | Occupation number:      1.00000000

  Lowest unoccupied state (CBM) at    -0.99330519 eV
  | Occupation number:      0.00000000

  Overall HOMO-LUMO gap:      0.89556231 eV.

  Total energy components:
  | Sum of eigenvalues            :        -210.23492048 Ha       -5720.78325649 eV
  | XC energy correction          :         -46.78182576 Ha       -1272.99824839 eV
  | XC potential correction       :          59.79982887 Ha        1627.23613638 eV
  | Free-atom electrostatic energy:        -178.79404097 Ha       -4865.23339506 eV
  | Hartree energy correction     :          -7.26685001 Ha        -197.74104968 eV
  | van der Waals energy corr.    :           0.00000000 Ha           0.00000000 eV
  | Entropy correction            :          -0.00010367 Ha          -0.00282095 eV
  | ---------------------------
  | Total energy                  :        -383.27780835 Ha      -10429.51981325 eV
  | Total energy, T -> 0          :        -383.27791201 Ha      -10429.52263419 eV  <-- do not rely on this value for anything but (periodic) metals
  | Electronic free energy        :        -383.27801568 Ha      -10429.52545514 eV

  Derived energy quantities:
  | Kinetic energy                :         382.13479552 Ha       10398.41685161 eV
  | Electrostatic energy          :        -718.63077810 Ha      -19554.93841646 eV
  | Energy correction for multipole
  | error in Hartree potential    :          -0.00611442 Ha          -0.16638171 eV
  | Sum of eigenvalues per atom                           :        -357.54895353 eV
  | Total energy (T->0) per atom                          :        -651.84516464 eV  <-- do not rely on this value for anything but (periodic) metals
  | Electronic free energy per atom                       :        -651.84534095 eV

  Self-consistency convergence accuracy:
  | Change of charge density      : 0.1101E+00
  | Change of sum of eigenvalues  : 0.2313E+02 eV
  | Change of total energy        : 0.1474E+00 eV

  End self-consistency iteration #     4       :  max(cpu_time)    wall_clock(cpu1)
  | Time for this iteration                    :        2.126 s           2.125 s
  | Charge density update                      :        0.668 s           0.668 s
  | Density mixing                             :        0.009 s           0.008 s
  | Hartree multipole update                   :        0.005 s           0.005 s
  | Hartree multipole summation                :        0.364 s           0.364 s
  | Integration                                :        1.022 s           1.023 s
  | Solution of K.-S. eqns.                    :        0.057 s           0.057 s
  | Total energy evaluation                    :        0.000 s           0.000 s
------------------------------------------------------------

------------------------------------------------------------
          Begin self-consistency iteration #    5

  Date     :  20150727, Time     :  123802.346
------------------------------------------------------------
  Evaluating new KS density.
  Integration grid: deviation in total charge (<rho> - N_e) =   2.065406E-10
  Pulay mixing of updated and previous charge densities.

  Evaluating partitioned Hartree potential by multipole expansion.
  | Analytical far-field extrapolation by fixed multipoles:
  | Hartree multipole sum: apparent total charge =  -0.573065E-05
  Summing up the Hartree potential.
  Time summed over all CPUs for potential: real work        2.892 s, elapsed        2.906 s
  | RMS charge density error from multipole expansion :   0.172882E-01

  Integrating Hamiltonian matrix: batch-based integration.
  Time summed over all CPUs for integration: real work        7.991 s, elapsed        8.138 s

  Updating Kohn-Sham eigenvalues, eigenvectors, occupation numbers, and Fermi level.
  Solving generalized eigenproblem
  Updating Kohn-Sham eigenvalues and eigenfunctions.
  Solving real generalised eigenvalue problem by standard LAPACK (fast)
  Determining occupation numbers for Kohn-Sham eigenstates.
  | Chemical potential (Fermi level) in eV                 : -.18634141E+01
  | Error in electron count due to remaining E_F inaccuracy: -.29842795E-12
  | Maximum occupation number of highest empty state:  0.00E+00

  Highest occupied state (VBM) at     -6.64367169 eV
  | Occupation number:      2.00000000

  Lowest unoccupied state (CBM) at    -1.86341411 eV
  | Occupation number:      1.00000000

  Overall HOMO-LUMO gap:      4.78025758 eV.

  Total energy components:
  | Sum of eigenvalues            :        -209.94654690 Ha       -5712.93621204 eV
  | XC energy correction          :         -46.82200804 Ha       -1274.09166393 eV
  | XC potential correction       :          59.85110873 Ha        1628.63153246 eV
  | Free-atom electrostatic energy:        -178.79404097 Ha       -4865.23339506 eV
  | Hartree energy correction     :          -7.56559266 Ha        -205.87025075 eV
  | van der Waals energy corr.    :           0.00000000 Ha           0.00000000 eV
  | Entropy correction            :          -0.00010367 Ha          -0.00282095 eV
  | ---------------------------
  | Total energy                  :        -383.27707983 Ha      -10429.49998931 eV
  | Total energy, T -> 0          :        -383.27718350 Ha      -10429.50281026 eV  <-- do not rely on this value for anything but (periodic) metals
  | Electronic free energy        :        -383.27728717 Ha      -10429.50563120 eV

  Derived energy quantities:
  | Kinetic energy                :         382.15346871 Ha       10398.92497497 eV
  | Electrostatic energy          :        -718.60854049 Ha      -19554.33330035 eV
  | Energy correction for multipole
  | error in Hartree potential    :          -0.00689683 Ha          -0.18767239 eV
  | Sum of eigenvalues per atom                           :        -357.05851325 eV
  | Total energy (T->0) per atom                          :        -651.84392564 eV  <-- do not rely on this value for anything but (periodic) metals
  | Electronic free energy per atom                       :        -651.84410195 eV

  Self-consistency convergence accuracy:
  | Change of charge density      : 0.4537E-01
  | Change of sum of eigenvalues  : 0.7847E+01 eV
  | Change of total energy        : 0.1982E-01 eV

  End self-consistency iteration #     5       :  max(cpu_time)    wall_clock(cpu1)
  | Time for this iteration                    :        2.123 s           2.123 s
  | Charge density update                      :        0.667 s           0.667 s
  | Density mixing                             :        0.010 s           0.010 s
  | Hartree multipole update                   :        0.005 s           0.004 s
  | Hartree multipole summation                :        0.365 s           0.365 s
  | Integration                                :        1.019 s           1.018 s
  | Solution of K.-S. eqns.                    :        0.057 s           0.057 s
  | Total energy evaluation                    :        0.000 s           0.000 s
------------------------------------------------------------

------------------------------------------------------------
          Begin self-consistency iteration #    6

  Date     :  20150727, Time     :  123804.469
------------------------------------------------------------
  Evaluating new KS density.
  Integration grid: deviation in total charge (<rho> - N_e) =  -2.913225E-13
  Pulay mixing of updated and previous charge densities.

  Evaluating partitioned Hartree potential by multipole expansion.
  | Analytical far-field extrapolation by fixed multipoles:
  | Hartree multipole sum: apparent total charge =  -0.584804E-05
  Summing up the Hartree potential.
  Time summed over all CPUs for potential: real work        2.892 s, elapsed        2.907 s
  | RMS charge density error from multipole expansion :   0.175430E-01

  Integrating Hamiltonian matrix: batch-based integration.
  Time summed over all CPUs for integration: real work        7.989 s, elapsed        8.144 s

  Updating Kohn-Sham eigenvalues, eigenvectors, occupation numbers, and Fermi level.
  Solving generalized eigenproblem
  Updating Kohn-Sham eigenvalues and eigenfunctions.
  Solving real generalised eigenvalue problem by standard LAPACK (fast)
  Determining occupation numbers for Kohn-Sham eigenstates.
  | Chemical potential (Fermi level) in eV                 : -.18635498E+01
  | Error in electron count due to remaining E_F inaccuracy: 0.12100543E-10
  | Maximum occupation number of highest empty state:  0.00E+00

  Highest occupied state (VBM) at     -1.86354975 eV
  | Occupation number:      1.00000000

  Lowest unoccupied state (CBM) at    -0.97178211 eV
  | Occupation number:      0.00000000

  Overall HOMO-LUMO gap:      0.89176765 eV.

  Total energy components:
  | Sum of eigenvalues            :        -209.93552624 Ha       -5712.63632462 eV
  | XC energy correction          :         -46.82502791 Ha       -1274.17383863 eV
  | XC potential correction       :          59.85473637 Ha        1628.73024540 eV
  | Free-atom electrostatic energy:        -178.79404097 Ha       -4865.23339506 eV
  | Hartree energy correction     :          -7.57724819 Ha        -206.18741387 eV
  | van der Waals energy corr.    :           0.00000000 Ha           0.00000000 eV
  | Entropy correction            :          -0.00010367 Ha          -0.00282095 eV
  | ---------------------------
  | Total energy                  :        -383.27710693 Ha      -10429.50072678 eV
  | Total energy, T -> 0          :        -383.27721060 Ha      -10429.50354773 eV  <-- do not rely on this value for anything but (periodic) metals
  | Electronic free energy        :        -383.27731427 Ha      -10429.50636868 eV

  Derived energy quantities:
  | Kinetic energy                :         382.13674969 Ha       10398.47002731 eV
  | Electrostatic energy          :        -718.58882871 Ha      -19553.79691546 eV
  | Energy correction for multipole
  | error in Hartree potential    :          -0.00708958 Ha          -0.19291728 eV
  | Sum of eigenvalues per atom                           :        -357.03977029 eV
  | Total energy (T->0) per atom                          :        -651.84397173 eV  <-- do not rely on this value for anything but (periodic) metals
  | Electronic free energy per atom                       :        -651.84414804 eV

  Self-consistency convergence accuracy:
  | Change of charge density      : 0.7690E-02
  | Change of sum of eigenvalues  : 0.2999E+00 eV
  | Change of total energy        : -.7375E-03 eV

  End self-consistency iteration #     6       :  max(cpu_time)    wall_clock(cpu1)
  | Time for this iteration                    :        2.125 s           2.124 s
  | Charge density update                      :        0.667 s           0.667 s
  | Density mixing                             :        0.012 s           0.011 s
  | Hartree multipole update                   :        0.005 s           0.005 s
  | Hartree multipole summation                :        0.364 s           0.364 s
  | Integration                                :        1.019 s           1.020 s
  | Solution of K.-S. eqns.                    :        0.056 s           0.057 s
  | Total energy evaluation                    :        0.001 s           0.000 s
------------------------------------------------------------

------------------------------------------------------------
          Begin self-consistency iteration #    7

  Date     :  20150727, Time     :  123806.593
------------------------------------------------------------
  Evaluating new KS density.
  Integration grid: deviation in total charge (<rho> - N_e) =   1.213607E-11
  Pulay mixing of updated and previous charge densities.

  Evaluating partitioned Hartree potential by multipole expansion.
  | Analytical far-field extrapolation by fixed multipoles:
  | Hartree multipole sum: apparent total charge =  -0.580471E-05
  Summing up the Hartree potential.
  Time summed over all CPUs for potential: real work        2.892 s, elapsed        2.906 s
  | RMS charge density error from multipole expansion :   0.175298E-01

  Integrating Hamiltonian matrix: batch-based integration.
  Time summed over all CPUs for integration: real work        7.997 s, elapsed        8.134 s

  Updating Kohn-Sham eigenvalues, eigenvectors, occupation numbers, and Fermi level.
  Solving generalized eigenproblem
  Updating Kohn-Sham eigenvalues and eigenfunctions.
  Solving real generalised eigenvalue problem by standard LAPACK (fast)
  Determining occupation numbers for Kohn-Sham eigenstates.
  | Chemical potential (Fermi level) in eV                 : -.18797721E+01
  | Error in electron count due to remaining E_F inaccuracy: -.29842795E-12
  | Maximum occupation number of highest empty state:  0.00E+00

  Highest occupied state (VBM) at     -6.73293182 eV
  | Occupation number:      2.00000000

  Lowest unoccupied state (CBM) at    -1.87977205 eV
  | Occupation number:      1.00000000

  Overall HOMO-LUMO gap:      4.85315977 eV.

  Total energy components:
  | Sum of eigenvalues            :        -210.01128422 Ha       -5714.69780424 eV
  | XC energy correction          :         -46.81601703 Ha       -1273.92864006 eV
  | XC potential correction       :          59.84271611 Ha        1628.40315746 eV
  | Free-atom electrostatic energy:        -178.79404097 Ha       -4865.23339506 eV
  | Hartree energy correction     :          -7.49843602 Ha        -204.04282564 eV
  | van der Waals energy corr.    :           0.00000000 Ha           0.00000000 eV
  | Entropy correction            :          -0.00010367 Ha          -0.00282095 eV
  | ---------------------------
  | Total energy                  :        -383.27706213 Ha      -10429.49950753 eV
  | Total energy, T -> 0          :        -383.27716579 Ha      -10429.50232848 eV  <-- do not rely on this value for anything but (periodic) metals
  | Electronic free energy        :        -383.27726946 Ha      -10429.50514943 eV

  Derived energy quantities:
  | Kinetic energy                :         382.16587718 Ha       10399.26262664 eV
  | Electrostatic energy          :        -718.62692228 Ha      -19554.83349412 eV
  | Energy correction for multipole
  | error in Hartree potential    :          -0.00719701 Ha          -0.19584060 eV
  | Sum of eigenvalues per atom                           :        -357.16861276 eV
  | Total energy (T->0) per atom                          :        -651.84389553 eV  <-- do not rely on this value for anything but (periodic) metals
  | Electronic free energy per atom                       :        -651.84407184 eV

  Self-consistency convergence accuracy:
  | Change of charge density      : 0.7356E-02
  | Change of sum of eigenvalues  : -.2061E+01 eV
  | Change of total energy        : 0.1219E-02 eV

  End self-consistency iteration #     7       :  max(cpu_time)    wall_clock(cpu1)
  | Time for this iteration                    :        2.125 s           2.125 s
  | Charge density update                      :        0.666 s           0.667 s
  | Density mixing                             :        0.013 s           0.013 s
  | Hartree multipole update                   :        0.005 s           0.005 s
  | Hartree multipole summation                :        0.364 s           0.364 s
  | Integration                                :        1.018 s           1.018 s
  | Solution of K.-S. eqns.                    :        0.057 s           0.057 s
  | Total energy evaluation                    :        0.000 s           0.000 s
------------------------------------------------------------

------------------------------------------------------------
          Begin self-consistency iteration #    8

  Date     :  20150727, Time     :  123808.718
------------------------------------------------------------
  Evaluating new KS density.
  Integration grid: deviation in total charge (<rho> - N_e) =  -2.700062E-13
  Pulay mixing of updated and previous charge densities.

  Evaluating partitioned Hartree potential by multipole expansion.
  | Analytical far-field extrapolation by fixed multipoles:
  | Hartree multipole sum: apparent total charge =  -0.577925E-05
  Summing up the Hartree potential.
  Time summed over all CPUs for potential: real work        2.892 s, elapsed        2.907 s
  | RMS charge density error from multipole expansion :   0.175596E-01

  Integrating Hamiltonian matrix: batch-based integration.
  Time summed over all CPUs for integration: real work        7.992 s, elapsed        8.130 s

  Updating Kohn-Sham eigenvalues, eigenvectors, occupation numbers, and Fermi level.
  Solving generalized eigenproblem
  Updating Kohn-Sham eigenvalues and eigenfunctions.
  Solving real generalised eigenvalue problem by standard LAPACK (fast)
  Determining occupation numbers for Kohn-Sham eigenstates.
  | Chemical potential (Fermi level) in eV                 : -.18849492E+01
  | Error in electron count due to remaining E_F inaccuracy: 0.29780978E-09
  | Maximum occupation number of highest empty state:  0.00E+00

  Highest occupied state (VBM) at     -1.88494916 eV
  | Occupation number:      1.00000000

  Lowest unoccupied state (CBM) at    -0.98866983 eV
  | Occupation number:      0.00000000

  Overall HOMO-LUMO gap:      0.89627933 eV.

  Total energy components:
  | Sum of eigenvalues            :        -210.03745489 Ha       -5715.40994438 eV
  | XC energy correction          :         -46.81400897 Ha       -1273.87399801 eV
  | XC potential correction       :          59.83998213 Ha        1628.32876227 eV
  | Free-atom electrostatic energy:        -178.79404097 Ha       -4865.23339506 eV
  | Hartree energy correction     :          -7.47153387 Ha        -203.31078096 eV
  | van der Waals energy corr.    :           0.00000000 Ha           0.00000000 eV
  | Entropy correction            :          -0.00010367 Ha          -0.00282095 eV
  | ---------------------------
  | Total energy                  :        -383.27705656 Ha      -10429.49935613 eV
  | Total energy, T -> 0          :        -383.27716023 Ha      -10429.50217708 eV  <-- do not rely on this value for anything but (periodic) metals
  | Electronic free energy        :        -383.27726390 Ha      -10429.50499803 eV

  Derived energy quantities:
  | Kinetic energy                :         382.17727043 Ha       10399.57265283 eV
  | Electrostatic energy          :        -718.64031802 Ha      -19555.19801096 eV
  | Energy correction for multipole
  | error in Hartree potential    :          -0.00726108 Ha          -0.19758404 eV
  | Sum of eigenvalues per atom                           :        -357.21312152 eV
  | Total energy (T->0) per atom                          :        -651.84388607 eV  <-- do not rely on this value for anything but (periodic) metals
  | Electronic free energy per atom                       :        -651.84406238 eV

  Self-consistency convergence accuracy:
  | Change of charge density      : 0.2420E-02
  | Change of sum of eigenvalues  : -.7121E+00 eV
  | Change of total energy        : 0.1514E-03 eV

  End self-consistency iteration #     8       :  max(cpu_time)    wall_clock(cpu1)
  | Time for this iteration                    :        2.126 s           2.126 s
  | Charge density update                      :        0.667 s           0.667 s
  | Density mixing                             :        0.014 s           0.014 s
  | Hartree multipole update                   :        0.005 s           0.005 s
  | Hartree multipole summation                :        0.364 s           0.365 s
  | Integration                                :        1.018 s           1.017 s
  | Solution of K.-S. eqns.                    :        0.057 s           0.057 s
  | Total energy evaluation                    :        0.000 s           0.000 s
------------------------------------------------------------

------------------------------------------------------------
          Begin self-consistency iteration #    9

  Date     :  20150727, Time     :  123810.844
------------------------------------------------------------
  Evaluating new KS density.
  Integration grid: deviation in total charge (<rho> - N_e) =   2.978453E-10
  Pulay mixing of updated and previous charge densities.

  Evaluating partitioned Hartree potential by multipole expansion.
  | Analytical far-field extrapolation by fixed multipoles:
  | Hartree multipole sum: apparent total charge =  -0.577804E-05
  Summing up the Hartree potential.
  Time summed over all CPUs for potential: real work        2.892 s, elapsed        2.906 s
  | RMS charge density error from multipole expansion :   0.175497E-01

  Integrating Hamiltonian matrix: batch-based integration.
  Time summed over all CPUs for integration: real work        8.000 s, elapsed        8.161 s

  Updating Kohn-Sham eigenvalues, eigenvectors, occupation numbers, and Fermi level.
  Solving generalized eigenproblem
  Updating Kohn-Sham eigenvalues and eigenfunctions.
  Solving real generalised eigenvalue problem by standard LAPACK (fast)
  Determining occupation numbers for Kohn-Sham eigenstates.
  | Chemical potential (Fermi level) in eV                 : -.18852388E+01
  | Error in electron count due to remaining E_F inaccuracy: 0.35597481E-09
  | Maximum occupation number of highest empty state:  0.00E+00

  Highest occupied state (VBM) at     -1.88523875 eV
  | Occupation number:      1.00000000

  Lowest unoccupied state (CBM) at    -0.98901083 eV
  | Occupation number:      0.00000000

  Overall HOMO-LUMO gap:      0.89622793 eV.

  Total energy components:
  | Sum of eigenvalues            :        -210.03729387 Ha       -5715.40556274 eV
  | XC energy correction          :         -46.81402610 Ha       -1273.87446421 eV
  | XC potential correction       :          59.84001046 Ha        1628.32953318 eV
  | Free-atom electrostatic energy:        -178.79404097 Ha       -4865.23339506 eV
  | Hartree energy correction     :          -7.47170527 Ha        -203.31544491 eV
[...]
   Van der Waals               : 0.258247E-02 0.121988E-02 0.210867E-02
   ----------------------------------------------------------------
   Total forces(   7)            : -.332020E+00 0.332153E+00 -.265512E+01
  atom #    8
   Hellmann-Feynman + Multipole  : -.443201E+01 0.207187E+01 -.951051E+01
   Pulay + GGA                   : 0.576282E+01 -.217076E+01 0.103430E+02
   Van der Waals               : -.663596E-03 0.736939E-02 0.647257E-03
   ----------------------------------------------------------------
   Total forces(   8)            : 0.133015E+01 -.915212E-01 0.833094E+00
  atom #    9
   Hellmann-Feynman + Multipole  : -.146556E+00 -.396103E+00 -.629914E+00
   Pulay + GGA                   : 0.242959E-01 0.103648E+00 0.934314E-01
   Van der Waals               : 0.497176E-03 0.580040E-02 0.213054E-02
   ----------------------------------------------------------------
   Total forces(   9)            : -.121762E+00 -.286654E+00 -.534352E+00
  atom #   10
   Hellmann-Feynman + Multipole  : -.119829E+01 0.611703E+00 -.268510E+00
   Pulay + GGA                   : 0.124367E+00 -.746651E-01 0.123100E-01
   Van der Waals               : -.976767E-03 0.237234E-02 0.780241E-03
   ----------------------------------------------------------------
   Total forces(  10)            : -.107490E+01 0.539410E+00 -.255420E+00
  atom #   11
   Hellmann-Feynman + Multipole  : 0.687798E+01 -.738518E+01 -.107940E+02
   Pulay + GGA                   : -.812509E+01 0.868212E+01 0.121274E+02
   Van der Waals               : 0.973084E-03 -.133594E-02 -.111163E-01
   ----------------------------------------------------------------
   Total forces(  11)            : -.124614E+01 0.129560E+01 0.132235E+01
  atom #   12
   Hellmann-Feynman + Multipole  : -.446930E+00 0.315099E+00 -.210219E+01
   Pulay + GGA                   : 0.237693E-01 -.480652E-02 0.145780E+00
   Van der Waals               : 0.338530E-03 0.236882E-04 -.387524E-02
   ----------------------------------------------------------------
   Total forces(  12)            : -.422822E+00 0.310316E+00 -.196029E+01
  atom #   13
   Hellmann-Feynman + Multipole  : 0.180056E+01 -.172823E+01 0.556849E+00
   Pulay + GGA                   : -.108213E+00 0.923562E-01 -.148504E-01
   Van der Waals               : -.512161E-04 -.358600E-02 -.321303E-02
   ----------------------------------------------------------------
   Total forces(  13)            : 0.169229E+01 -.163946E+01 0.538786E+00
  atom #   14
   Hellmann-Feynman + Multipole  : -.122501E+02 -.279500E+01 0.282919E+01
   Pulay + GGA                   : 0.128279E+02 0.396813E+01 -.347901E+01
   Van der Waals               : 0.518052E-02 -.820266E-02 0.359817E-02
   ----------------------------------------------------------------
   Total forces(  14)            : 0.582952E+00 0.116493E+01 -.646224E+00
  atom #   15
   Hellmann-Feynman + Multipole  : -.134082E+00 -.123864E+00 0.115527E+00
   Pulay + GGA                   : 0.127960E+00 -.608963E-01 0.310312E-01
   Van der Waals               : 0.187724E-02 -.229146E-02 -.380527E-02
   ----------------------------------------------------------------
   Total forces(  15)            : -.424501E-02 -.187052E+00 0.142753E+00
  atom #   16
   Hellmann-Feynman + Multipole  : -.625989E+00 -.117186E+01 0.528548E+00
   Pulay + GGA                   : 0.467004E-01 0.116529E+00 -.628231E-01
   Van der Waals               : -.129050E-03 -.551471E-02 0.638314E-03
   ----------------------------------------------------------------
   Total forces(  16)            : -.579418E+00 -.106085E+01 0.466364E+00
  Timings for vdw_correction_hirshfeld (Tkatchenko-Scheffler 2009):
  | CPU time:        5.654 s, Wall clock time:        5.655 s.
  Removing unitary transformations (pure translations, rotations) from forces on atoms.
  Atomic forces before filtering:
  | Net force on center of mass :  0.553455E-02 -.409329E-02 0.747002E-02 eV/A
  | Net torque on center of mass:  -.154038E-01 0.143991E-01 -.110834E-01 eV
  Atomic forces after filtering:
  | Net force on center of mass :  -.356812E-15 -.178406E-15 -.178406E-15 eV/A
  | Net torque on center of mass:  -.122731E-14 -.151054E-14 -.188817E-14 eV
 
  Energy and forces in a compact form:
  | Total energy uncorrected      :         -0.104295914515920E+05 eV
  | Total energy corrected        :         -0.104295942725399E+05 eV  <-- do not rely on this value for anything but (periodic) metals
  | Electronic free energy        :         -0.104295970934878E+05 eV
  Total atomic forces (unitary forces cleaned) [eV/Ang]:
  |   1         -0.151731024105530E+01          0.548857089145231E+00          0.229180394967640E+00
  |   2          0.646949547169770E-01         -0.445531597242049E+00          0.158818383345640E+00
  |   3          0.883917789110366E+00          0.836592351650460E-02          0.703081413026791E-01
  |   4          0.233220561219828E+00          0.817943367732641E-01         -0.569047971224046E+00
  |   5          0.371882701115450E+00         -0.961872311995907E+00          0.258342001289417E+01
  |   6          0.145045130138603E+00          0.389375378935039E+00          0.277982547539387E+00
  |   7         -0.331889955870346E+00          0.332641343703669E+00         -0.265588633055382E+01
  |   8          0.133016208665052E+01         -0.907464628905705E-01          0.832827826474950E+00
  |   9         -0.122032830508497E+00         -0.286036001564197E+00         -0.534464200312301E+00
  |  10         -0.107481900573058E+01          0.540301671710505E+00         -0.255635837479569E+00
  |  11         -0.124713010149020E+01          0.129519130443324E+01          0.132186810554790E+01
  |  12         -0.424025092825172E+00          0.309708632825309E+00         -0.196075883611869E+01
  |  13          0.169120288036298E+01         -0.163996204092514E+01          0.538299628167112E+00
  |  14          0.582237191412360E+00          0.116514686247756E+01         -0.646278658334029E+00
  |  15         -0.496464643015176E-02         -0.186757119364101E+00          0.142799119247746E+00
  |  16         -0.580191420816853E+00         -0.106047700953836E+01          0.466567674535235E+00
 
  ------------------------------------ 
  Start decomposition of the XC Energy 
  ------------------------------------ 
  Hartree-Fock part   :          0.000000000 Ha              0.000000000 eV
  ------------------------------------ 
  X Energy            :        -45.159446146 Ha          -1228.851052888 eV
  C Energy GGA        :         -1.654756648 Ha            -45.028219391 eV
  Total XC Energy     :        -46.814202794 Ha          -1273.879272279 eV
  LDA X and C from self-consistent density 
  X Energy LDA        :        -40.698347746 Ha          -1107.458389028 eV
  C Energy LDA        :         -3.335282959 Ha            -90.757667016 eV
  ------------------------------------ 
  End decomposition of the XC Energy 
  ------------------------------------ 
  Performing Hirshfeld analysis of fragment charges and moments.
  ----------------------------------------------------------------------
  | Atom     1: O
  |   Hirshfeld charge        :     -0.13082822
  |   Free atom volume        :     23.95238533
  |   Hirshfeld volume        :     21.48015295
  |   Hirshfeld dipole vector :      0.00593905       0.03274919       0.01649789
  |   Hirshfeld dipole moment :      0.03714784
  |   Hirshfeld second moments:      0.07802518      -0.00751519      -0.01157822
  |                                 -0.00751519       0.04282187      -0.02577851
  |                                 -0.01157822      -0.02577851       0.07496836
  ----------------------------------------------------------------------
  | Atom     2: H
  |   Hirshfeld charge        :      0.11809330
  |   Free atom volume        :     10.44207651
  |   Hirshfeld volume        :      9.10505120
  |   Hirshfeld dipole vector :     -0.00248476       0.01325869      -0.00554342
  |   Hirshfeld dipole moment :      0.01458412
  |   Hirshfeld second moments:      0.05534338       0.01994963      -0.00341988
  |                                  0.01994963       0.03368102       0.01278689
  |                                 -0.00341988       0.01278689       0.07242769
  ----------------------------------------------------------------------
  | Atom     3: H
  |   Hirshfeld charge        :      0.09981904
  |   Free atom volume        :     10.44207651
  |   Hirshfeld volume        :      9.69622333
  |   Hirshfeld dipole vector :      0.01162378       0.00848212      -0.00013699
  |   Hirshfeld dipole moment :      0.01439018
  |   Hirshfeld second moments:      0.01979687      -0.01657708      -0.00295704
  |                                 -0.01657708       0.05311266       0.00375546
  |                                 -0.00295704       0.00375546       0.05297928
  ----------------------------------------------------------------------
  | Atom     4: H
  |   Hirshfeld charge        :      0.14030630
  |   Free atom volume        :     10.44207651
  |   Hirshfeld volume        :     10.37323654
  |   Hirshfeld dipole vector :     -0.02217855       0.00004780       0.04498953
  |   Hirshfeld dipole moment :      0.05015923
  |   Hirshfeld second moments:      0.05161912       0.00017147       0.00443318
  |                                  0.00017147       0.05396516       0.00254773
  |                                  0.00443318       0.00254773       0.01755077
  ----------------------------------------------------------------------
  | Atom     5: O
  |   Hirshfeld charge        :     -0.21276834
  |   Free atom volume        :     23.95238533
  |   Hirshfeld volume        :     21.64457504
  |   Hirshfeld dipole vector :      0.03187667       0.00520597      -0.01802404
  |   Hirshfeld dipole moment :      0.03698770
  |   Hirshfeld second moments:      0.01057477      -0.00218211       0.03214495
  |                                 -0.00218211       0.06409220       0.00360780
  |                                  0.03214495       0.00360780       0.07148484
  ----------------------------------------------------------------------
  | Atom     6: H
  |   Hirshfeld charge        :      0.10226484
  |   Free atom volume        :     10.44207651
  |   Hirshfeld volume        :      9.33263180
  |   Hirshfeld dipole vector :      0.01673049       0.02961826       0.00897423
  |   Hirshfeld dipole moment :      0.03518078
  |   Hirshfeld second moments:      0.03916428      -0.01976919       0.00722935
  |                                 -0.01976919       0.04423414      -0.01807277
  |                                  0.00722935      -0.01807277       0.06182840
  ----------------------------------------------------------------------
  | Atom     7: H
  |   Hirshfeld charge        :      0.13211761
  |   Free atom volume        :     10.44207651
  |   Hirshfeld volume        :      9.42306110
  |   Hirshfeld dipole vector :     -0.01424050       0.00879455      -0.08181865
  |   Hirshfeld dipole moment :      0.08351304
  |   Hirshfeld second moments:      0.05445385      -0.00107630       0.01048770
  |                                 -0.00107630       0.07769765       0.00695240
  |                                  0.01048770       0.00695240       0.05476118
  ----------------------------------------------------------------------
  | Atom     8: O
  |   Hirshfeld charge        :     -0.23475012
  |   Free atom volume        :     23.95238533
  |   Hirshfeld volume        :     23.38097943
  |   Hirshfeld dipole vector :     -0.01391553      -0.02908238       0.03436935
  |   Hirshfeld dipole moment :      0.04712408
  |   Hirshfeld second moments:      0.03874281      -0.01969113       0.00888936
  |                                 -0.01969113       0.00839468       0.04602827
  |                                  0.00888936       0.04602827      -0.02801085
  ----------------------------------------------------------------------
  | Atom     9: H
  |   Hirshfeld charge        :      0.07580119
  |   Free atom volume        :     10.44207651
  |   Hirshfeld volume        :     11.86726353
  |   Hirshfeld dipole vector :     -0.01334525       0.02267191       0.03251370
  |   Hirshfeld dipole moment :      0.04182406
  |   Hirshfeld second moments:      0.03101339      -0.02145561      -0.00259280
  |                                 -0.02145561       0.00376991       0.00921612
  |                                 -0.00259280       0.00921612      -0.02790954
  ----------------------------------------------------------------------
  | Atom    10: H
  |   Hirshfeld charge        :      0.09409437
  |   Free atom volume        :     10.44207651
  |   Hirshfeld volume        :     12.41337555
  |   Hirshfeld dipole vector :      0.03978555      -0.03646069      -0.00021501
  |   Hirshfeld dipole moment :      0.05396590
  |   Hirshfeld second moments:      0.00856274       0.00178897      -0.00082416
  |                                  0.00178897       0.00369447       0.02584776
  |                                 -0.00082416       0.02584776      -0.00551537
  ----------------------------------------------------------------------
  | Atom    11: O
  |   Hirshfeld charge        :     -0.32935377
  |   Free atom volume        :     23.95238533
  |   Hirshfeld volume        :     24.52615219
  |   Hirshfeld dipole vector :     -0.03504015       0.04115685       0.05270764
  |   Hirshfeld dipole moment :      0.07549697
  |   Hirshfeld second moments:     -0.06832492      -0.05253522       0.03390576
  |                                 -0.05253522      -0.06890044      -0.02666851
  |                                  0.03390576      -0.02666851       0.00219432
  ----------------------------------------------------------------------
  | Atom    12: H
  |   Hirshfeld charge        :      0.11008558
  |   Free atom volume        :     10.44207651
  |   Hirshfeld volume        :      9.42307458
  |   Hirshfeld dipole vector :      0.01453078      -0.00677255       0.10913337
  |   Hirshfeld dipole moment :      0.11030459
  |   Hirshfeld second moments:      0.05250247      -0.02242412       0.01326514
  |                                 -0.02242412       0.05009674      -0.01132319
  |                                  0.01326514      -0.01132319       0.06113632
  ----------------------------------------------------------------------
  | Atom    13: H
  |   Hirshfeld charge        :      0.10568822
  |   Free atom volume        :     10.44207651
  |   Hirshfeld volume        :      9.56096381
  |   Hirshfeld dipole vector :     -0.06930727       0.06732994      -0.00959318
  |   Hirshfeld dipole moment :      0.09710226
  |   Hirshfeld second moments:      0.04099250      -0.01387756      -0.00006214
  |                                 -0.01387756       0.02871499      -0.00061280
  |                                 -0.00006214      -0.00061280       0.07556237
  ----------------------------------------------------------------------
  | Atom    14: O
  |   Hirshfeld charge        :     -0.25884990
  |   Free atom volume        :     23.95238533
  |   Hirshfeld volume        :     22.80666378
  |   Hirshfeld dipole vector :      0.02435861      -0.01061278      -0.02387532
  |   Hirshfeld dipole moment :      0.03572120
  |   Hirshfeld second moments:      0.00250017       0.00761006       0.03254504
  |                                  0.00761006       0.04366669      -0.03157551
  |                                  0.03254504      -0.03157551      -0.01379350
  ----------------------------------------------------------------------
  | Atom    15: H
  |   Hirshfeld charge        :      0.08422671
  |   Free atom volume        :     10.44207651
  |   Hirshfeld volume        :     10.51733520
  |   Hirshfeld dipole vector :      0.03763149      -0.03131155       0.02007474
  |   Hirshfeld dipole moment :      0.05291065
  |   Hirshfeld second moments:      0.00877525       0.00901500      -0.00136804
  |                                  0.00901500       0.05476337      -0.00785363
  |                                 -0.00136804      -0.00785363       0.01998359
  ----------------------------------------------------------------------
  | Atom    16: H
  |   Hirshfeld charge        :      0.10406870
  |   Free atom volume        :     10.44207651
  |   Hirshfeld volume        :     10.74108372
  |   Hirshfeld dipole vector :      0.01629584       0.06511957      -0.03103898
  |   Hirshfeld dipole moment :      0.07395628
  |   Hirshfeld second moments:      0.03416347      -0.00232537       0.01790206
  |                                 -0.00232537       0.04324191      -0.00628085
  |                                  0.01790206      -0.00628085       0.01913060
  ----------------------------------------------------------------------


------------------------------------------------------------------------------
  Final output of selected total energy values:

  The following output summarizes some interesting total energy values
  at the end of a run (AFTER all relaxation, molecular dynamics, etc.).

  | Total energy of the DFT / Hartree-Fock s.c.f. calculation      :         -10429.591451592 eV
  | Final zero-broadening corrected energy (caution - metals only) :         -10429.594272540 eV
  | For reference only, the value of 1 Hartree used in FHI-aims is :             27.211384500 eV

  Before relying on these values, please be sure to understand exactly which
  total energy value is referred to by a given number. Different objects may
  all carry the same name 'total energy'. Definitions:

  Total energy of the DFT / Hartree-Fock s.c.f. calculation:
  | Note that this energy does not include ANY quantities calculated after the
  | s.c.f. cycle, in particular not ANY RPA, MP2, etc. many-body perturbation terms.

  Final zero-broadening corrected energy:
  | For metallic systems only, a broadening of the occupation numbers at the Fermi
  | level can be extrapolated back to zero broadening by an electron-gas inspired
  | formula. For all systems that are not real metals, this value can be
  | meaningless and should be avoided.

------------------------------------------------------------------------------

------------------------------------------------------------
          Leaving FHI-aims.
          Date     :  20150727, Time     :  123832.207

          Computational steps:
          | Number of self-consistency cycles          :           16

          Detailed time accounting                     :  max(cpu_time)    wall_clock(cpu1)
          | Total time                                 :       41.082 s          41.110 s
          | Preparation time                           :        0.174 s           0.480 s
          | Grid partitioning                          :        0.199 s           0.199 s
          | Preloading free-atom quantities on grid    :        0.013 s           0.013 s
          | Free-atom superposition energy             :        0.073 s           0.073 s
          | Total time for integrations                :       17.940 s          17.937 s
          | Total time for solution of K.-S. equations :        1.121 s           1.124 s
          | Total time for density & force components  :       13.595 s          13.592 s
          | Total time for mixing                      :        0.217 s           0.218 s
          | Total time for Hartree multipole update    :        0.080 s           0.079 s
          | Total time for Hartree multipole sum       :        7.038 s           7.041 s
          | Total time for total energy evaluation     :        0.005 s           0.005 s
          | Total time for scaled ZORA corrections     :        0.000 s           0.000 s
          | Total time for TS (2009) vdW correction    :        0.057 s           0.058 s

          Have a nice day.
------------------------------------------------------------
