  MPI-parallelism will be employed.
------------------------------------------------------------
          Invoking FHI-aims ...
          Version 081213
          Compiled on 2013/08/29 at 17:41:06 on host generoso.

          When using FHI-aims, please cite the following reference:

          Volker Blum, Ralf Gehrke, Felix Hanke, Paula Havu,
          Ville Havu, Xinguo Ren, Karsten Reuter, and Matthias Scheffler,
          'Ab Initio Molecular Simulations with Numeric Atom-Centered Orbitals: FHI-aims',
          Computer Physics Communications 180, 2175-2196 (2009)

          For any questions about FHI-aims, please visit the aimsclub website
          with its forums and wiki. Contributions to both the forums and the
          wiki are warmly encouraged - they are for you, and everyone is welcome there.

------------------------------------------------------------

  Date     :  20150727, Time     :  130347.909
  Time zero on CPU 1             :   0.439920000000000E-01  s.
  Internal wall clock time zero  :           207234227.909  s.

  Using        8 parallel tasks.
  Task        0 on host gen59 reporting.
  Task        1 on host gen59 reporting.
  Task        2 on host gen59 reporting.
  Task        3 on host gen59 reporting.
  Task        4 on host gen59 reporting.
  Task        5 on host gen59 reporting.
  Task        6 on host gen59 reporting.
  Task        7 on host gen59 reporting.

  Performing system and environment tests:
  | Environment variable OMP_NUM_THREADS correctly set to 1.
  | Checking for scalapack...
  | No scalapack compiled in.

  Obtaining array dimensions for all initial allocations:
  
  -----------------------------------------------------------------------
  Parsing control.in (first pass over file, find array dimensions only).
  The contents of control.in will be repeated verbatim below
  unless switched off by setting 'verbatim_writeout .false.' .
  in the first line of control.in .
  -----------------------------------------------------------------------
  
  #########################################################################################
  #
  #  Volker Blum, FHI 2008 : Test run input file control.in
  #
  #########################################################################################
  #
  #  Physical model
  #
    xc                 rpbe
    spin               none
    relativistic       atomic_zora scalar
    charge             0.
   vdw_correction_hirshfeld
  #
  #  SCF convergence
  #
    occupation_type    gaussian 0.01
    mixer              pulay
      n_max_pulay        10
      charge_mix_param   0.1
    sc_accuracy_rho    5E-5
    sc_accuracy_eev    5E-3
    sc_accuracy_etot   5E-6
    sc_iter_limit      3000
  #
  #  Eigenvalue solver
  #
    KS_method          lapack
      empty_states       8
      basis_threshold    0.e-5
  #
  #  Efficiency
  #
  #   all previous settings are now default, except stratmann still
  #   undecided. Continue to handle stratmann with care, if at all.
  #
  #  partition_type stratmann
    partition_type rho_r2
  #  hartree_partition_type stratmann
  #
  #  Oprions for large clusters (100's of atoms: memory saving / better scaling)
  #
  # for periodic systems:
  #
    density_update_method orbital
    packed_matrix_format none
  #  k_grid 6 6 6
  #  output k_eigenvalue 1
  #  distributed_spline_storage .true.
  #
  #  Relaxation
  #
  #  relax_geometry   bfgs 5.e-3
    sc_accuracy_forces 5.E-4
    final_forces_cleaned .true.
  #
  #  Output options
  #
  #  output mulliken
    output Hirshfeld
  #  output dipole
  
  #harmonic_length_scale 0.001
  
  ################################################################################
  #
  #  FHI-aims code project
  #  VB, Fritz-Haber Institut, 2007
  #
  #  Suggested "safe" defaults for H atom (to be pasted into control.in file)
  #  Basis constructed for a non-relativistic H2 molecule using the
  #  PW-LDA functional.
  #
  ################################################################################
    species        H
  #     global species definitions
      nucleus             1
      cut_pot             4.0  2.0  1.0
      cut_free_atom       finite 8.0
      logarithmic         0.00010000 100.00  1.0123
      basis_dep_cutoff    1d-4  # 1d-4 is safe default - please check 5d-4 if you wish!
      radial_base         24 7.0
      radial_multiplier   2
      angular_grids       specified
        division   0.2783  110
        division   0.3822  194
        division   0.5626  302
  #      division   0.5922  434
  #      division   0.6227  590
  #      division   0.7206  770
        outer_grid  302
      l_hartree           4
  ################################################################################
  #
  #  Definition of "minimal" basis
  #
  ################################################################################
  #     valence basis states
      valence      1  s   1.
  #     ion occupancy
      ion_occ      1  s   0.5
  ################################################################################
  #
  #  Suggested additional basis functions. For production calculations,
  #  uncomment them one after another (the most important basis functions are
  #  listed first).
  #
  ################################################################################
  #  "First tier" - improvements: -1014.90 meV to -62.69 meV
       hydro 2 s 2.1
       hydro 2 p 3.5
  #  "Second tier" - improvements: -12.89 meV to -1.83 meV
       hydro 1 s 0.85
       hydro 2 p 3.7
       hydro 2 s 1.2
       hydro 3 d 7
  #  "Third tier" - improvements: -0.25 meV to -0.12 meV
  #     hydro 4 f 11.2
  #     hydro 3 p 4.8
  #     hydro 4 d 9
  #     hydro 3 s 3.2
  
  ################################################################################
  #
  #  FHI-aims code project
  #  VB, Fritz-Haber Institut, 2007
  #
  #  Suggested "safe" defaults for O atom (to be pasted into control.in file)
  #  All values have been tested for a non-relativistic, non-spinpolarized O2
  #  molecule using the PW-LDA functional. Validity for PBE is expected.
  #
  #  Constructed for dimers: 1.0 A, 1.208 A, 1.5 A, 2.0 A, 3.0 A
  #
  ################################################################################
    species        O
  #     global species definitions
      nucleus             8
      mass                15.9994
      l_hartree           4
      cut_pot             4.0  2.0  1.0
      cut_free_atom       finite 8.0
      basis_dep_cutoff    1d-4  # 1d-4 is safe default - please check 5d-4 if you wish!
      logarithmic         0.00010000 100.00  1.0123
      radial_base         36 7.0
      radial_multiplier   2
       angular_grids specified
        division   0.4087  110
        division   0.5181  194
        division   0.6184  302
  #      division   0.7315  434
  #      division   0.7934  590
  #      division   0.9656  770
  #      division   1.4041  974
  #      outer_grid 974
        outer_grid 302
  ################################################################################
  #
  #  Definition of "minimal" basis
  #
  ################################################################################
  #     valence basis states
      valence      2  s   2.
      valence      2  p   4.
  #     ion occupancy
      ion_occ      2  s   1.
      ion_occ      2  p   3.
  ################################################################################
  #
  #  Suggested additional basis functions. For production calculations,
  #  uncomment them one after another (the most important basis functions are
  #  listed first).
  #
  ################################################################################
  #  "First tier" - improvements: -699.05 meV to -159.38 meV
       hydro 2 p 1.8
       hydro 3 d 7.6
       hydro 3 s 6.4
  #  "Second tier" - improvements: -49.91 meV to -5.39 meV
       hydro 4 f 11.6
       hydro 3 p 6.2
       hydro 3 d 5.6
       hydro 5 g 17.6
       hydro 1 s 0.75
  #  "Third tier" - improvements: -2.83 meV to -0.50 meV
  #     ionic 2 p auto
  #     hydro 4 f 10.8
  #     hydro 4 d 4.7
  #     hydro 2 s 6.8
  #  "Fourth tier" - improvements: -0.40 meV to -0.12 meV
  #     hydro 3 p 5
  #     hydro 3 s 3.3
  #     hydro 5 g 15.6
  #     hydro 4 f 17.6
  #     hydro 4 d 14
  # Further basis functions - -0.08 meV and below
  #     hydro 3 s 2.1
  #     hydro 4 d 11.6
  #     hydro 3 p 16
  #     hydro 2 s 17.2
  
  
  -----------------------------------------------------------------------
  Completed first pass over input file control.in .
  -----------------------------------------------------------------------
  
  
  -----------------------------------------------------------------------
  Parsing geometry.in (first pass over file, find array dimensions only).
  The contents of geometry.in will be repeated verbatim below
  unless switched off by setting 'verbatim_writeout .false.' .
  in the first line of geometry.in .
  -----------------------------------------------------------------------
  
  atom      -4.053030000      0.065001000     -1.525160000  O
  atom      -4.566710000      0.974813000     -1.912820000  H
  atom      -3.067820000      0.330172000     -1.477310000  H
  atom      -4.370360000     -0.049164000     -0.572274000  H
  atom      -3.818880000      2.024990000      2.187990000  O
  atom      -3.690880000      1.961360000      3.202150000  H
  atom      -4.546490000      2.751300000      2.045370000  H
  
  -----------------------------------------------------------------------
  Completed first pass over input file geometry.in .
  -----------------------------------------------------------------------
  
 
  Basic array size parameters: 
  | Number of species                 :        2
  | Number of atoms                   :        7
  | Max. basis fn. angular momentum   :        4
  | Max. atomic/ionic basis occupied n:        2
  | Max. number of basis fn. types    :        2
  | Max. radial fns per species/type  :        8
  | Max. logarithmic grid size        :     1301
  | Max. radial integration grid size :       73
  | Max. angular integration grid size:      302
  | Max. angular grid division number :        8
  | Radial grid for Hartree potential :     1301
  | Number of spin channels           :        1

------------------------------------------------------------
          Reading file control.in.
------------------------------------------------------------
  XC: Using RPBE gradient-corrected functionals.
  Spin treatment: No spin polarisation.
  Scalar relativistic treatment of kinetic energy: on-site free-atom approximation to ZORA.
  Charge =   0.000000E+00: Neutral system requested explicitly.
  Using non-empirical van der Waals correction (Hirshfeld partitioning):
  Occupation type: Gaussian broadening, width =   0.100000E-01 eV.
  Using pulay charge density mixing.
  Pulay mixing - number of memorized iterations:   10
  Charge density mixing - mixing parameter:     0.1000
  Convergence accuracy of self-consistent charge density: 0.5000E-04
  Convergence accuracy of sum of eigenvalues: 0.5000E-02
  Convergence accuracy of total energy: 0.5000E-05
  Maximum number of s.-c. iterations  :  3000
  Kohn-Sham eigenvalues and eigenfunctions calculated by lapack diagonalisation (D&C).
  Number of empty states per atom:        8
  Threshold for basis singularities: 0.0000E+00
  Partition function in integrals calculations: rho / r^2
 Using packed matrix format           0
  Convergence accuracy of forces: 0.5000E-03
  Cleaning forces before final output.
  Hirshfeld charge analysis will be performed.
 
  Reading configuration options for species H                   .
  | Found nuclear charge :   1.0000
  | Found cutoff potl. onset [A], width [A], scale factor :    4.00000    2.00000    1.00000
  | Found cutoff specification for free atom: Cutoff potential begins at    8.00000 A.
  | Found logarithmic grid data [bohr] : 0.1000E-03 0.1000E+03 0.1012E+01
  | Threshold for basis-dependent cutoff potential is   0.100000E-03
  | Found data for basic radial integration grid :    24 points, outermost radius =    7.000 A
  | Found multiplier for basic radial grid :   2
  | Found angular grid specification: user-specified.
  | Specified grid contains     4 separate shells.
  | Check grid settings after all constraints further below.
  | Found l_max for Hartree potential  :   4
  | Found free-atom valence shell :  1 s   1.000
  | No ionic wave fns used. Skipping ion_occ.
  | Found hydrogenic basis function :  2 s   2.100
  | Found hydrogenic basis function :  2 p   3.500
  | Found hydrogenic basis function :  1 s   0.850
  | Found hydrogenic basis function :  2 p   3.700
  | Found hydrogenic basis function :  2 s   1.200
  | Found hydrogenic basis function :  3 d   7.000
  Species H                   : Missing cutoff potential type.
  Defaulting to exp(1/x)/(1-x)^2 type cutoff potential.
  Species H : On-site basis accuracy parameter (for Gram-Schmidt orthonormalisation) not specified.
  Using default value basis_acc =  0.1000000E-03.
  Species H                   : Using default innermost maximum threshold i_radial=  2 for radial functions.
  Species H                   : Basic radial grid will be enhanced according to radial_multiplier =   2, to contain    49 grid points.
 
  Reading configuration options for species O                   .
  | Found nuclear charge :   8.0000
  | Found atomic mass :    15.9994000000000      amu
  | Found l_max for Hartree potential  :   4
  | Found cutoff potl. onset [A], width [A], scale factor :    4.00000    2.00000    1.00000
  | Found cutoff specification for free atom: Cutoff potential begins at    8.00000 A.
  | Threshold for basis-dependent cutoff potential is   0.100000E-03
  | Found logarithmic grid data [bohr] : 0.1000E-03 0.1000E+03 0.1012E+01
  | Found data for basic radial integration grid :    36 points, outermost radius =    7.000 A
  | Found multiplier for basic radial grid :   2
  | Found angular grid specification: user-specified.
  | Specified grid contains     4 separate shells.
  | Check grid settings after all constraints further below.
  | Found free-atom valence shell :  2 s   2.000
  | Found free-atom valence shell :  2 p   4.000
  | No ionic wave fns used. Skipping ion_occ.
  | No ionic wave fns used. Skipping ion_occ.
  | Found hydrogenic basis function :  2 p   1.800
  | Found hydrogenic basis function :  3 d   7.600
  | Found hydrogenic basis function :  3 s   6.400
  | Found hydrogenic basis function :  4 f  11.600
  | Found hydrogenic basis function :  3 p   6.200
  | Found hydrogenic basis function :  3 d   5.600
  | Found hydrogenic basis function :  5 g  17.600
  | Found hydrogenic basis function :  1 s   0.750
  Species O                   : Missing cutoff potential type.
  Defaulting to exp(1/x)/(1-x)^2 type cutoff potential.
  Species O : On-site basis accuracy parameter (for Gram-Schmidt orthonormalisation) not specified.
  Using default value basis_acc =  0.1000000E-03.
  Species O                   : Using default innermost maximum threshold i_radial=  2 for radial functions.
  Species O                   : Basic radial grid will be enhanced according to radial_multiplier =   2, to contain    73 grid points.
 
  Finished reading input file 'control.in'. Consistency checks are next.
 
  Target number of points in a grid batch is not set. Defaulting to  100
  Method for grid partitioning is not set. Defaulting to parallel hash+maxmin partitioning.
  Batch size limit is not set. Defaulting to    200
  By default, will store active basis functions for each batch.
  If in need of memory, prune_basis_once .false. can be used to disable this option.
  communication_type for Hartree potential was not specified.
  Defaulting to calc_hartree .
  Pulay mixer: Number of initial linear mixing iterations not set.
  Defaulting to    0 iterations.
  Work space size for distributed Hartree potential not set.
  Defaulting to   0.200000E+03 MB.
  Algorithm-dependent basis array size parameters:
  | n_max_pulay                         :       10
  Geometry relaxation not requested: no relaxation will be performed.
  Handling of forces: Unphysical translation and rotation will be removed from forces.
  No accuracy limit for integral partition fn. given. Defaulting to 0.1000E-14.
  No threshold value for u(r) in integrations given. Defaulting to 0.1000E-05.
  No accuracy for occupation numbers given. Defaulting to 0.1000E-07.
  No threshold value for occupation numbers given. Defaulting to 0.0000E+00.
  No accuracy for fermi level given. Defaulting to 0.1000E-19.
  Maximum # of iterations to find E_F not set. Defaulting to  200.
  Will not use alltoall communication since running on < 1024 CPUs.
  Partitioning for Hartree potential was not defined. Using partition_type for integrals.
  | Reporting present value of keyword multip_moments_threshold  :       0.10000000E-09
  | This value may affect high angular momentum components of the Hartree potential in periodic systems.
  No q(lm)/r^(l+1) cutoff set for long-range Hartree potential.
  | Using default value of  0.100000E-09 .
  | Verify using the multipole_threshold keyword.
  Defaulting to new monopole extrapolation.
  Density update method: Loop over occupied states selected for charge density update.
------------------------------------------------------------


------------------------------------------------------------
          Reading geometry description geometry.in.
------------------------------------------------------------
  Input structure read successfully.
  The structure contains        7 atoms,  and a total of         21.000 electrons.

  Input geometry:
  | No unit cell requested.
  | Atomic structure:
  |       Atom                x [A]            y [A]            z [A]
  |    1: Species O             -4.053030         0.065001        -1.525160
  |    2: Species H             -4.566710         0.974813        -1.912820
  |    3: Species H             -3.067820         0.330172        -1.477310
  |    4: Species H             -4.370360        -0.049164        -0.572274
  |    5: Species O             -3.818880         2.024990         2.187990
  |    6: Species H             -3.690880         1.961360         3.202150
  |    7: Species H             -4.546490         2.751300         2.045370
  |

  | The smallest distance between any two atoms is         1.01080349 AA.
  |
  | The first atom of this pair is atom number                      1 .
  | The second atom of this pair is atom number                     4 .

  Structure-dependent array size parameters: 
  | Maximum number of distinct radial functions  :       18
  | Maximum number of basis functions            :      153
  | Number of Kohn-Sham states (occupied + empty):       39
------------------------------------------------------------

------------------------------------------------------------
          Preparing all fixed parts of the calculation.
------------------------------------------------------------
  Determining machine precision:
    2.225073858507201E-308
  Setting up grids for atomic and cluster calculations.

  Creating wave function, potential, and density for free atoms.

  Species: H

  List of occupied orbitals and eigenvalues:
    n    l              occ      energy [Ha]    energy [eV]
    1    0           1.0000        -0.241408        -6.5691


  Species: O

  List of occupied orbitals and eigenvalues:
    n    l              occ      energy [Ha]    energy [eV]
    1    0           2.0000       -18.944147      -515.4965
    2    0           2.0000        -0.883529       -24.0421
    2    1           4.0000        -0.330176        -8.9845

  Creating fixed part of basis set: Ionic, confined, hydrogenic.
 
  H                    hydrogenic:
 
  List of hydrogenic basis orbitals: 
    n    l      effective z      eigenvalue [eV]  inner max. [A]     outer max. [A]     outer radius [A]   
    2    0         2.100000       -14.9965           0.193241           1.317192           5.372934
    2    1         3.500000       -41.6672           0.602363           0.602363           4.056010
    1    0         0.850000        -9.8292           0.624864           0.624864           5.372934
    2    1         3.700000       -46.5653           0.573616           0.573616           3.909951
    2    0         1.200000        -4.5995           0.334977           2.228160           5.505921
    3    2         7.000000       -74.0753           0.680692           0.680692           3.769152
 
 
  O                    hydrogenic:
 
  List of hydrogenic basis orbitals: 
    n    l      effective z      eigenvalue [eV]  inner max. [A]     outer max. [A]     outer radius [A]   
    2    1         1.800000       -11.0118           1.178546           1.178546           5.432516
    3    2         7.600000       -87.3182           0.624117           0.624117           3.541422
    3    0         6.400000       -61.9209           0.061166           1.081887           4.306510
    4    3        11.600000      -114.4238           0.731621           0.731621           3.584982
    3    1         6.200000       -58.1113           0.255677           1.030255           4.306510
    3    2         5.600000       -47.4081           0.847222           0.847222           4.413102
    5    4        17.600000      -168.5799           0.749730           0.749730           3.372413
    1    0         0.750000        -7.6499           0.705275           0.705275           5.366508
 

  Adding cutoff potential to free-atom effective potential.
  Creating atomic-like basis functions for current effective potential.

  Species H                   :

  List of atomic basis orbitals and eigenvalues:
    n    l      energy [Ha]    energy [eV]    outer radius [A]
    1    0        -0.241374        -6.5681       5.372934


  Species O                   :

  List of atomic basis orbitals and eigenvalues:
    n    l      energy [Ha]    energy [eV]    outer radius [A]
    1    0       -18.944147      -515.4965       1.415745
    2    0        -0.883529       -24.0421       5.048305
    2    1        -0.330173        -8.9845       5.301302

  Assembling full basis from fixed parts.
  | Species H :   atomic orbital   1 s accepted.
  | Species H :    hydro orbital   2 s accepted.
  | Species H :    hydro orbital   1 s accepted.
  | Species H :    hydro orbital   2 s accepted.
  | Species H :    hydro orbital   2 p accepted.
  | Species H :    hydro orbital   2 p accepted.
  | Species H :    hydro orbital   3 d accepted.
  | Species O :   atomic orbital   1 s accepted.
  | Species O :    hydro orbital   3 s accepted.
  | Species O :   atomic orbital   2 s accepted.
  | Species O :    hydro orbital   1 s accepted.
  | Species O :    hydro orbital   3 p accepted.
  | Species O :   atomic orbital   2 p accepted.
  | Species O :    hydro orbital   2 p accepted.
  | Species O :    hydro orbital   3 d accepted.
  | Species O :    hydro orbital   3 d accepted.
  | Species O :    hydro orbital   4 f accepted.
  | Species O :    hydro orbital   5 g accepted.
 
  Basis size parameters after reduction:
  | Total number of radial functions:       18
  | Total number of basis functions :      153
 
  Testing on-site integration grid accuracy.
  |  Species  Function  <phi|h_atom|phi> (log., in eV)  <phi|h_atom|phi> (rad., in eV)
           1        1                 -6.5683835025                 -6.5684759159
           1        2                 13.3711789951                 13.3708738703
           1        3                 23.6590910787                 23.6532055418
           1        4                 16.2963827186                 16.1870710655 ***
           1        5                 28.7627214838                 28.7627215090
           1        6                 59.5965249172                 59.5965950857
           1        7                 60.2220506392                 60.2220503827
           2        8               -515.4964576505               -515.4964530710
           2        9                 15.3030791347                 15.3030722972
           2       10                -21.7296094581                -21.7296135470
           2       11                 14.2969371730                 14.2969701621
           2       12                 21.0679693190                 21.0679697493
           2       13                 -2.3833606469                 -2.3833613176
           2       14                 13.7067136422                 13.7066766629
           2       15                 45.8013116808                 45.8013116965
           2       16                 52.2309815402                 52.2309831494
           2       17                 85.4120732416                 85.4120732763
           2       18                142.1019167745                142.1019167817
 * Note: Onsite integrals marked "***" above are less accurate than
 * onsite_accuracy_threshold =    0.03000 eV. Usually, this is harmless.
 * When in doubt, tighten the "radial" and/or "radial_multiplier" flags to check.

  Preparing densities etc. for the partition functions (integrals / Hartree potential).

  Preparations completed.
  max(cpu_time)          :      0.170 s.
  Wall clock time (cpu1) :      0.530 s.
------------------------------------------------------------

------------------------------------------------------------
          Begin self-consistency loop: Initialization.

          Date     :  20150727, Time     :  130348.457
------------------------------------------------------------

  Initializing index lists of integration centers etc. from given atomic structure:
  | Number of centers in hartree potential         :         7
  | Number of centers in hartree multipole         :         7
  | Number of centers in electron density summation:         7
  | Number of centers in basis integrals           :         7
  | Number of centers in integrals                 :         7
  Partitioning the integration grid into batches with parallel hashing+maxmin method.
  | Number of batches:      966
  | Maximal batch size:     200
  | Minimal batch size:      49
  | Average batch size:      93.455
  | Standard deviation of batch sizes:      25.754

  Integration load balanced across     8 MPI tasks.
  Work distribution over tasks is as follows:
  Task     0 has      11259 integration points.
  Task     1 has      11316 integration points.
  Task     2 has      11259 integration points.
  Task     3 has      11284 integration points.
  Task     4 has      11316 integration points.
  Task     5 has      11230 integration points.
  Task     6 has      11333 integration points.
  Task     7 has      11281 integration points.
  Initializing partition tables, free-atom densities, potentials, etc. across the integration grid (initialize_grid_storage).
  | Net number of integration points:    90278
  | of which are non-zero points    :    89811
  Obtaining max. number of non-zero basis functions in each batch (get_n_compute_maxes).
  | Maximal number of non-zero basis functions:      152 in task     0
  | Maximal number of non-zero basis functions:      152 in task     1
  | Maximal number of non-zero basis functions:      152 in task     2
  | Maximal number of non-zero basis functions:      152 in task     3
  | Maximal number of non-zero basis functions:      152 in task     4
  | Maximal number of non-zero basis functions:      152 in task     5
  | Maximal number of non-zero basis functions:      152 in task     6
  | Maximal number of non-zero basis functions:      152 in task     7
  Integrating Hamiltonian matrix: batch-based integration.
  Time summed over all CPUs for integration: real work        1.219 s, elapsed        1.254 s
  Integrating overlap matrix.
  Time summed over all CPUs for integration: real work        0.612 s, elapsed        0.632 s

  Updating Kohn-Sham eigenvalues, eigenvectors, occupation numbers, and Fermi level.
  Solving generalized eigenproblem
  Updating Kohn-Sham eigenvalues and eigenfunctions.
  Transforming overlap matrix and checking for singularities.
  Overlap matrix is nonsingular:
  | Lowest eigenvalue:  0.384530E-03
  Solving real generalised eigenvalue problem by standard LAPACK (fast)
  Determining occupation numbers for Kohn-Sham eigenstates.
  | Chemical potential (Fermi level) in eV                 : -.29365531E+01
  | Error in electron count due to remaining E_F inaccuracy: -.42632564E-13
  | Maximum occupation number of highest empty state:  0.00E+00

  Writing Kohn-Sham eigenvalues.

  State    Occupation    Eigenvalue [Ha]    Eigenvalue [eV]
      1       2.00000         -19.064652         -518.77558
      2       2.00000         -19.028668         -517.79640
      3       2.00000          -1.118627          -30.43939
      4       2.00000          -1.060030          -28.84488
      5       2.00000          -0.626738          -17.05440
      6       2.00000          -0.598778          -16.29357
      7       2.00000          -0.590393          -16.06541
      8       2.00000          -0.489486          -13.31960
      9       2.00000          -0.487386          -13.26245
     10       2.00000          -0.417393          -11.35783
     11       1.00000          -0.107916           -2.93655
     12       0.00000          -0.073960           -2.01256
     13       0.00000          -0.035699           -0.97142
     14       0.00000          -0.017683           -0.48117
     15       0.00000          -0.013680           -0.37225
     16       0.00000           0.069758            1.89821
     17       0.00000           0.073337            1.99561
     18       0.00000           0.084778            2.30694
     19       0.00000           0.095416            2.59641
     20       0.00000           0.106622            2.90133
     21       0.00000           0.113363            3.08476
     22       0.00000           0.129370            3.52034
     23       0.00000           0.193149            5.25584
     24       0.00000           0.207193            5.63801
     25       0.00000           0.229737            6.25146
     26       0.00000           0.242563            6.60048
     27       0.00000           0.312614            8.50665
     28       0.00000           0.342335            9.31542
     29       0.00000           0.344712            9.38010
     30       0.00000           0.368543           10.02856
     31       0.00000           0.370765           10.08903
     32       0.00000           0.376833           10.25414
     33       0.00000           0.412220           11.21707
     34       0.00000           0.433510           11.79641
     35       0.00000           0.451149           12.27640
     36       0.00000           0.496268           13.50415
     37       0.00000           0.539940           14.69252
     38       0.00000           0.696430           18.95084
     39       0.00000           0.711672           19.36558

  Highest occupied state (VBM) at    -11.35783232 eV
  | Occupation number:      2.00000000

  Lowest unoccupied state (CBM) at    -2.93655313 eV
  | Occupation number:      1.00000000

  Overall HOMO-LUMO gap:      8.42127919 eV.
  Calculating total energy contributions from superposition of free atom densities.

  Total energy components:
  | Sum of eigenvalues            :         -87.07221694 Ha       -2369.35557446 eV
  | XC energy correction          :         -18.51658774 Ha        -503.86198854 eV
  | XC potential correction       :          23.65881571 Ha         643.78913113 eV
  | Free-atom electrostatic energy:         -71.73682494 Ha       -1952.05832632 eV
  | Hartree energy correction     :           0.00000000 Ha           0.00000000 eV
  | van der Waals energy corr.    :           0.00000000 Ha           0.00000000 eV
  | Entropy correction            :          -0.00010367 Ha          -0.00282095 eV
  | ---------------------------
  | Total energy                  :        -153.66681391 Ha       -4181.48675818 eV
  | Total energy, T -> 0          :        -153.66691758 Ha       -4181.48957913 eV  <-- do not rely on this value for anything but (periodic) metals
  | Electronic free energy        :        -153.66702125 Ha       -4181.49240008 eV

  Derived energy quantities:
  | Kinetic energy                :         152.22700669 Ha        4142.30761043 eV
  | Electrostatic energy          :        -287.37723287 Ha       -7819.93238007 eV
  | Energy correction for multipole
  | error in Hartree potential    :           0.00000000 Ha           0.00000000 eV
  | Sum of eigenvalues per atom                           :        -338.47936778 eV
  | Total energy (T->0) per atom                          :        -597.35565416 eV  <-- do not rely on this value for anything but (periodic) metals
  | Electronic free energy per atom                       :        -597.35605715 eV
  Initialize hartree_potential_storage
  Max. number of atoms included in rho_multipole:            7

  End scf initialization - timings             :  max(cpu_time)    wall_clock(cpu1)
  | Time for scf. initialization               :        0.424 s           0.424 s
  | Boundary condition initialization          :        0.000 s           0.019 s
  | Integration                                :        0.236 s           0.236 s
  | Solution of K.-S. eqns.                    :        0.034 s           0.035 s
  | Grid partitioning                          :        0.069 s           0.069 s
  | Preloading free-atom quantities on grid    :        0.013 s           0.013 s
  | Free-atom superposition energy             :        0.020 s           0.020 s
  | Total energy evaluation                    :        0.000 s           0.000 s
------------------------------------------------------------

------------------------------------------------------------
          Begin self-consistency iteration #    1

  Date     :  20150727, Time     :  130348.881
------------------------------------------------------------
  Evaluating new KS density.
  Integration grid: deviation in total charge (<rho> - N_e) =  -5.329071E-14
  Pulay mixing of updated and previous charge densities.

  Evaluating partitioned Hartree potential by multipole expansion.
  | Analytical far-field extrapolation by fixed multipoles:
  | Hartree multipole sum: apparent total charge =  -0.282521E-06
  Summing up the Hartree potential.
  Time summed over all CPUs for potential: real work        0.570 s, elapsed        0.575 s
  | RMS charge density error from multipole expansion :   0.999439E-03

  Integrating Hamiltonian matrix: batch-based integration.
  Time summed over all CPUs for integration: real work        1.218 s, elapsed        1.255 s

  Updating Kohn-Sham eigenvalues, eigenvectors, occupation numbers, and Fermi level.
  Solving generalized eigenproblem
  Updating Kohn-Sham eigenvalues and eigenfunctions.
  Solving real generalised eigenvalue problem by standard LAPACK (fast)
  Determining occupation numbers for Kohn-Sham eigenstates.
  | Chemical potential (Fermi level) in eV                 : -.27985136E+01
  | Error in electron count due to remaining E_F inaccuracy: 0.83697316E-09
  | Maximum occupation number of highest empty state:  0.00E+00

  Writing Kohn-Sham eigenvalues.

  State    Occupation    Eigenvalue [Ha]    Eigenvalue [eV]
      1       2.00000         -19.013892         -517.39434
      2       2.00000         -18.953492         -515.75076
      3       2.00000          -1.095634          -29.81372
      4       2.00000          -1.022383          -27.82045
      5       2.00000          -0.607407          -16.52839
      6       2.00000          -0.579267          -15.76266
      7       2.00000          -0.559115          -15.21428
      8       2.00000          -0.465342          -12.66261
      9       2.00000          -0.450399          -12.25599
     10       2.00000          -0.377835          -10.28141
     11       1.00000          -0.102843           -2.79851
     12       0.00000          -0.066586           -1.81190
     13       0.00000          -0.030212           -0.82211
     14       0.00000          -0.012744           -0.34678
     15       0.00000          -0.006168           -0.16783
     16       0.00000           0.072191            1.96440
     17       0.00000           0.077732            2.11521
     18       0.00000           0.087576            2.38307
     19       0.00000           0.101816            2.77055
     20       0.00000           0.112166            3.05218
     21       0.00000           0.118040            3.21203
     22       0.00000           0.137261            3.73506
     23       0.00000           0.199132            5.41867
     24       0.00000           0.210312            5.72288
     25       0.00000           0.234823            6.38986
     26       0.00000           0.247247            6.72793
     27       0.00000           0.318584            8.66912
     28       0.00000           0.346201            9.42062
     29       0.00000           0.348737            9.48961
     30       0.00000           0.372221           10.12865
     31       0.00000           0.375927           10.22950
     32       0.00000           0.381599           10.38384
     33       0.00000           0.417114           11.35024
     34       0.00000           0.442610           12.04404
     35       0.00000           0.459649           12.50768
     36       0.00000           0.502483           13.67327
     37       0.00000           0.548898           14.93628
     38       0.00000           0.708099           19.26836
     39       0.00000           0.714833           19.45160

  Highest occupied state (VBM) at     -2.79851364 eV
  | Occupation number:      1.00000000

  Lowest unoccupied state (CBM) at    -1.81189537 eV
  | Occupation number:      0.00000000

  Overall HOMO-LUMO gap:      0.98661827 eV.

  Total energy components:
  | Sum of eigenvalues            :         -86.35237657 Ha       -2349.76772133 eV
  | XC energy correction          :         -18.59515313 Ha        -505.99986166 eV
  | XC potential correction       :          23.76167814 Ha         646.58816014 eV
  | Free-atom electrostatic energy:         -71.73682494 Ha       -1952.05832632 eV
  | Hartree energy correction     :          -0.70146953 Ha         -19.08795706 eV
  | van der Waals energy corr.    :           0.00000000 Ha           0.00000000 eV
  | Entropy correction            :          -0.00010367 Ha          -0.00282095 eV
  | ---------------------------
  | Total energy                  :        -153.62414603 Ha       -4180.32570623 eV
  | Total energy, T -> 0          :        -153.62424970 Ha       -4180.32852718 eV  <-- do not rely on this value for anything but (periodic) metals
  | Electronic free energy        :        -153.62435337 Ha       -4180.33134812 eV

  Derived energy quantities:
  | Kinetic energy                :         152.71134976 Ha        4155.48725571 eV
  | Electrostatic energy          :        -287.74034266 Ha       -7829.81310028 eV
  | Energy correction for multipole
  | error in Hartree potential    :           0.00037869 Ha           0.01030458 eV
  | Sum of eigenvalues per atom                           :        -335.68110305 eV
  | Total energy (T->0) per atom                          :        -597.18978960 eV  <-- do not rely on this value for anything but (periodic) metals
  | Electronic free energy per atom                       :        -597.19019259 eV

  Self-consistency convergence accuracy:
  | Change of charge density      : 0.3759E+00
  | Change of sum of eigenvalues  : 0.1959E+02 eV
  | Change of total energy        : 0.1161E+01 eV

  End self-consistency iteration #     1       :  max(cpu_time)    wall_clock(cpu1)
  | Time for this iteration                    :        0.361 s           0.361 s
  | Charge density update                      :        0.118 s           0.118 s
  | Density mixing                             :        0.001 s           0.001 s
  | Hartree multipole update                   :        0.002 s           0.003 s
  | Hartree multipole summation                :        0.073 s           0.072 s
  | Integration                                :        0.157 s           0.157 s
  | Solution of K.-S. eqns.                    :        0.008 s           0.008 s
  | Total energy evaluation                    :        0.000 s           0.000 s
------------------------------------------------------------

------------------------------------------------------------
          Begin self-consistency iteration #    2

  Date     :  20150727, Time     :  130349.242
------------------------------------------------------------
  Evaluating new KS density.
  Integration grid: deviation in total charge (<rho> - N_e) =   8.369732E-10
  Pulay mixing of updated and previous charge densities.

  Evaluating partitioned Hartree potential by multipole expansion.
  | Analytical far-field extrapolation by fixed multipoles:
  | Hartree multipole sum: apparent total charge =  -0.153727E-05
  Summing up the Hartree potential.
  Time summed over all CPUs for potential: real work        0.570 s, elapsed        0.575 s
  | RMS charge density error from multipole expansion :   0.388530E-02

  Integrating Hamiltonian matrix: batch-based integration.
  Time summed over all CPUs for integration: real work        1.216 s, elapsed        1.248 s

  Updating Kohn-Sham eigenvalues, eigenvectors, occupation numbers, and Fermi level.
  Solving generalized eigenproblem
  Updating Kohn-Sham eigenvalues and eigenfunctions.
  Solving real generalised eigenvalue problem by standard LAPACK (fast)
  Determining occupation numbers for Kohn-Sham eigenstates.
  | Chemical potential (Fermi level) in eV                 : -.24955303E+01
  | Error in electron count due to remaining E_F inaccuracy: 0.00000000E+00
  | Maximum occupation number of highest empty state:  0.00E+00

  Highest occupied state (VBM) at     -2.49553034 eV
  | Occupation number:      1.00000000

  Lowest unoccupied state (CBM) at    -2.49553034 eV
  | Occupation number:      1.00000000

  Overall HOMO-LUMO gap:      0.00000000 eV.

  Total energy components:
  | Sum of eigenvalues            :         -84.77442476 Ha       -2306.82946779 eV
  | XC energy correction          :         -18.77573473 Ha        -510.91373692 eV
  | XC potential correction       :          23.99747395 Ha         653.00449081 eV
  | Free-atom electrostatic energy:         -71.73682494 Ha       -1952.05832632 eV
  | Hartree energy correction     :          -2.29017593 Ha         -62.31885785 eV
  | van der Waals energy corr.    :           0.00000000 Ha           0.00000000 eV
  | Entropy correction            :          -0.00010367 Ha          -0.00282095 eV
  | ---------------------------
  | Total energy                  :        -153.57968640 Ha       -4179.11589807 eV
  | Total energy, T -> 0          :        -153.57979007 Ha       -4179.11871902 eV  <-- do not rely on this value for anything but (periodic) metals
  | Electronic free energy        :        -153.57989374 Ha       -4179.12153997 eV

  Derived energy quantities:
  | Kinetic energy                :         153.63446756 Ha        4180.60656932 eV
  | Electrostatic energy          :        -288.43841924 Ha       -7848.80873047 eV
  | Energy correction for multipole
  | error in Hartree potential    :           0.00116577 Ha           0.03172227 eV
  | Sum of eigenvalues per atom                           :        -329.54706683 eV
  | Total energy (T->0) per atom                          :        -597.01695986 eV  <-- do not rely on this value for anything but (periodic) metals
  | Electronic free energy per atom                       :        -597.01736285 eV

  Self-consistency convergence accuracy:
  | Change of charge density      : 0.2843E+00
  | Change of sum of eigenvalues  : 0.4294E+02 eV
  | Change of total energy        : 0.1210E+01 eV

  End self-consistency iteration #     2       :  max(cpu_time)    wall_clock(cpu1)
  | Time for this iteration                    :        0.359 s           0.359 s
  | Charge density update                      :        0.117 s           0.116 s
  | Density mixing                             :        0.002 s           0.003 s
  | Hartree multipole update                   :        0.003 s           0.002 s
  | Hartree multipole summation                :        0.072 s           0.073 s
  | Integration                                :        0.156 s           0.156 s
  | Solution of K.-S. eqns.                    :        0.008 s           0.009 s
  | Total energy evaluation                    :        0.000 s           0.000 s
------------------------------------------------------------

------------------------------------------------------------
          Begin self-consistency iteration #    3

  Date     :  20150727, Time     :  130349.601
------------------------------------------------------------
  Evaluating new KS density.
  Integration grid: deviation in total charge (<rho> - N_e) =  -1.776357E-14
  Pulay mixing of updated and previous charge densities.

  Evaluating partitioned Hartree potential by multipole expansion.
  | Analytical far-field extrapolation by fixed multipoles:
  | Hartree multipole sum: apparent total charge =  -0.161602E-05
  Summing up the Hartree potential.
  Time summed over all CPUs for potential: real work        0.570 s, elapsed        0.575 s
  | RMS charge density error from multipole expansion :   0.847768E-02

  Integrating Hamiltonian matrix: batch-based integration.
  Time summed over all CPUs for integration: real work        1.219 s, elapsed        1.252 s

  Updating Kohn-Sham eigenvalues, eigenvectors, occupation numbers, and Fermi level.
  Solving generalized eigenproblem
  Updating Kohn-Sham eigenvalues and eigenfunctions.
  Solving real generalised eigenvalue problem by standard LAPACK (fast)
  Determining occupation numbers for Kohn-Sham eigenstates.
  | Chemical potential (Fermi level) in eV                 : -.25768719E+01
  | Error in electron count due to remaining E_F inaccuracy: 0.00000000E+00
  | Maximum occupation number of highest empty state:  0.00E+00

  Highest occupied state (VBM) at     -2.57687192 eV
  | Occupation number:      1.00000000

  Lowest unoccupied state (CBM) at    -2.57687192 eV
  | Occupation number:      1.00000000

  Overall HOMO-LUMO gap:      0.00000000 eV.

  Total energy components:
  | Sum of eigenvalues            :         -84.97724733 Ha       -2312.34855097 eV
  | XC energy correction          :         -18.75960230 Ha        -510.47475124 eV
  | XC potential correction       :          23.97253943 Ha         652.32598801 eV
  | Free-atom electrostatic energy:         -71.73682494 Ha       -1952.05832632 eV
  | Hartree energy correction     :          -2.07751092 Ha         -56.53194831 eV
  | van der Waals energy corr.    :           0.00000000 Ha           0.00000000 eV
  | Entropy correction            :          -0.00010367 Ha          -0.00282095 eV
  | ---------------------------
  | Total energy                  :        -153.57864606 Ha       -4179.08758884 eV
  | Total energy, T -> 0          :        -153.57874972 Ha       -4179.09040978 eV  <-- do not rely on this value for anything but (periodic) metals
  | Electronic free energy        :        -153.57885339 Ha       -4179.09323073 eV

  Derived energy quantities:
  | Kinetic energy                :         152.92702909 Ha        4161.35618908 eV
  | Electrostatic energy          :        -287.74607285 Ha       -7829.96902667 eV
  | Energy correction for multipole
  | error in Hartree potential    :           0.00095458 Ha           0.02597538 eV
  | Sum of eigenvalues per atom                           :        -330.33550728 eV
  | Total energy (T->0) per atom                          :        -597.01291568 eV  <-- do not rely on this value for anything but (periodic) metals
  | Electronic free energy per atom                       :        -597.01331868 eV

  Self-consistency convergence accuracy:
  | Change of charge density      : 0.1516E+00
  | Change of sum of eigenvalues  : -.5519E+01 eV
  | Change of total energy        : 0.2831E-01 eV

  End self-consistency iteration #     3       :  max(cpu_time)    wall_clock(cpu1)
  | Time for this iteration                    :        0.361 s           0.361 s
  | Charge density update                      :        0.117 s           0.116 s
  | Density mixing                             :        0.003 s           0.004 s
  | Hartree multipole update                   :        0.003 s           0.002 s
  | Hartree multipole summation                :        0.072 s           0.073 s
  | Integration                                :        0.157 s           0.157 s
  | Solution of K.-S. eqns.                    :        0.009 s           0.008 s
  | Total energy evaluation                    :        0.000 s           0.001 s
------------------------------------------------------------

------------------------------------------------------------
          Begin self-consistency iteration #    4

  Date     :  20150727, Time     :  130349.962
------------------------------------------------------------
  Evaluating new KS density.
  Integration grid: deviation in total charge (<rho> - N_e) =   0.000000E+00
  Pulay mixing of updated and previous charge densities.

  Evaluating partitioned Hartree potential by multipole expansion.
  | Analytical far-field extrapolation by fixed multipoles:
  | Hartree multipole sum: apparent total charge =  -0.197724E-05
  Summing up the Hartree potential.
  Time summed over all CPUs for potential: real work        0.570 s, elapsed        0.575 s
  | RMS charge density error from multipole expansion :   0.107296E-01

  Integrating Hamiltonian matrix: batch-based integration.
  Time summed over all CPUs for integration: real work        1.216 s, elapsed        1.251 s

  Updating Kohn-Sham eigenvalues, eigenvectors, occupation numbers, and Fermi level.
  Solving generalized eigenproblem
  Updating Kohn-Sham eigenvalues and eigenfunctions.
  Solving real generalised eigenvalue problem by standard LAPACK (fast)
  Determining occupation numbers for Kohn-Sham eigenstates.
  | Chemical potential (Fermi level) in eV                 : -.25041389E+01
  | Error in electron count due to remaining E_F inaccuracy: -.10718040E-08
  | Maximum occupation number of highest empty state:  0.00E+00

  Highest occupied state (VBM) at     -6.91714412 eV
  | Occupation number:      2.00000000

  Lowest unoccupied state (CBM) at    -2.50413895 eV
  | Occupation number:      1.00000000

  Overall HOMO-LUMO gap:      4.41300517 eV.

  Total energy components:
  | Sum of eigenvalues            :         -84.54078431 Ha       -2300.47178766 eV
  | XC energy correction          :         -18.81895550 Ha        -512.08983411 eV
  | XC potential correction       :          24.04903102 Ha         654.40742982 eV
  | Free-atom electrostatic energy:         -71.73682494 Ha       -1952.05832632 eV
  | Hartree energy correction     :          -2.52878887 Ha         -68.81184614 eV
  | van der Waals energy corr.    :           0.00000000 Ha           0.00000000 eV
  | Entropy correction            :          -0.00010367 Ha          -0.00282095 eV
  | ---------------------------
  | Total energy                  :        -153.57632260 Ha       -4179.02436440 eV
  | Total energy, T -> 0          :        -153.57642627 Ha       -4179.02718535 eV  <-- do not rely on this value for anything but (periodic) metals
  | Electronic free energy        :        -153.57652994 Ha       -4179.03000630 eV

  Derived energy quantities:
  | Kinetic energy                :         153.00583486 Ha        4163.50060300 eV
  | Electrostatic energy          :        -287.76320195 Ha       -7830.43513329 eV
  | Energy correction for multipole
  | error in Hartree potential    :           0.00114318 Ha           0.03110745 eV
  | Sum of eigenvalues per atom                           :        -328.63882681 eV
  | Total energy (T->0) per atom                          :        -597.00388362 eV  <-- do not rely on this value for anything but (periodic) metals
  | Electronic free energy per atom                       :        -597.00428661 eV

  Self-consistency convergence accuracy:
  | Change of charge density      : 0.6902E-01
  | Change of sum of eigenvalues  : 0.1188E+02 eV
  | Change of total energy        : 0.6322E-01 eV

  End self-consistency iteration #     4       :  max(cpu_time)    wall_clock(cpu1)
  | Time for this iteration                    :        0.361 s           0.360 s
  | Charge density update                      :        0.116 s           0.116 s
  | Density mixing                             :        0.004 s           0.004 s
  | Hartree multipole update                   :        0.002 s           0.002 s
  | Hartree multipole summation                :        0.073 s           0.072 s
  | Integration                                :        0.157 s           0.156 s
  | Solution of K.-S. eqns.                    :        0.008 s           0.008 s
  | Total energy evaluation                    :        0.000 s           0.000 s
------------------------------------------------------------

------------------------------------------------------------
          Begin self-consistency iteration #    5

  Date     :  20150727, Time     :  130350.322
------------------------------------------------------------
  Evaluating new KS density.
  Integration grid: deviation in total charge (<rho> - N_e) =  -1.071811E-09
  Pulay mixing of updated and previous charge densities.

  Evaluating partitioned Hartree potential by multipole expansion.
  | Analytical far-field extrapolation by fixed multipoles:
  | Hartree multipole sum: apparent total charge =  -0.185220E-05
  Summing up the Hartree potential.
  Time summed over all CPUs for potential: real work        0.570 s, elapsed        0.574 s
  | RMS charge density error from multipole expansion :   0.107684E-01

  Integrating Hamiltonian matrix: batch-based integration.
  Time summed over all CPUs for integration: real work        1.212 s, elapsed        1.244 s

  Updating Kohn-Sham eigenvalues, eigenvectors, occupation numbers, and Fermi level.
  Solving generalized eigenproblem
  Updating Kohn-Sham eigenvalues and eigenfunctions.
  Solving real generalised eigenvalue problem by standard LAPACK (fast)
  Determining occupation numbers for Kohn-Sham eigenstates.
  | Chemical potential (Fermi level) in eV                 : -.24947239E+01
  | Error in electron count due to remaining E_F inaccuracy: -.36455781E-08
  | Maximum occupation number of highest empty state:  0.00E+00

  Highest occupied state (VBM) at     -6.97097377 eV
  | Occupation number:      2.00000000

  Lowest unoccupied state (CBM) at    -2.49472393 eV
  | Occupation number:      1.00000000

  Overall HOMO-LUMO gap:      4.47624984 eV.

  Total energy components:
  | Sum of eigenvalues            :         -84.55228998 Ha       -2300.78487293 eV
  | XC energy correction          :         -18.81784322 Ha        -512.05956727 eV
  | XC potential correction       :          24.04747546 Ha         654.36510100 eV
  | Free-atom electrostatic energy:         -71.73682494 Ha       -1952.05832632 eV
  | Hartree energy correction     :          -2.51680471 Ha         -68.48574066 eV
  | van der Waals energy corr.    :           0.00000000 Ha           0.00000000 eV
  | Entropy correction            :          -0.00010367 Ha          -0.00282095 eV
  | ---------------------------
  | Total energy                  :        -153.57628739 Ha       -4179.02340618 eV
  | Total energy, T -> 0          :        -153.57639106 Ha       -4179.02622712 eV  <-- do not rely on this value for anything but (periodic) metals
  | Electronic free energy        :        -153.57649472 Ha       -4179.02904807 eV

  Derived energy quantities:
  | Kinetic energy                :         153.02947180 Ha        4164.14379706 eV
  | Electrostatic energy          :        -287.78791597 Ha       -7831.10763596 eV
  | Energy correction for multipole
  | error in Hartree potential    :           0.00123226 Ha           0.03353141 eV
  | Sum of eigenvalues per atom                           :        -328.68355328 eV
  | Total energy (T->0) per atom                          :        -597.00374673 eV  <-- do not rely on this value for anything but (periodic) metals
  | Electronic free energy per atom                       :        -597.00414972 eV

  Self-consistency convergence accuracy:
  | Change of charge density      : 0.8274E-02
  | Change of sum of eigenvalues  : -.3131E+00 eV
  | Change of total energy        : 0.9582E-03 eV

  End self-consistency iteration #     5       :  max(cpu_time)    wall_clock(cpu1)
  | Time for this iteration                    :        0.360 s           0.360 s
  | Charge density update                      :        0.116 s           0.116 s
  | Density mixing                             :        0.004 s           0.005 s
  | Hartree multipole update                   :        0.002 s           0.002 s
  | Hartree multipole summation                :        0.073 s           0.072 s
  | Integration                                :        0.156 s           0.156 s
  | Solution of K.-S. eqns.                    :        0.008 s           0.009 s
  | Total energy evaluation                    :        0.001 s           0.000 s
------------------------------------------------------------

------------------------------------------------------------
          Begin self-consistency iteration #    6

  Date     :  20150727, Time     :  130350.682
------------------------------------------------------------
  Evaluating new KS density.
  Integration grid: deviation in total charge (<rho> - N_e) =  -3.645582E-09
  Pulay mixing of updated and previous charge densities.

  Evaluating partitioned Hartree potential by multipole expansion.
  | Analytical far-field extrapolation by fixed multipoles:
  | Hartree multipole sum: apparent total charge =  -0.180410E-05
  Summing up the Hartree potential.
  Time summed over all CPUs for potential: real work        0.569 s, elapsed        0.574 s
  | RMS charge density error from multipole expansion :   0.109215E-01

  Integrating Hamiltonian matrix: batch-based integration.
  Time summed over all CPUs for integration: real work        1.212 s, elapsed        1.244 s

  Updating Kohn-Sham eigenvalues, eigenvectors, occupation numbers, and Fermi level.
  Solving generalized eigenproblem
  Updating Kohn-Sham eigenvalues and eigenfunctions.
  Solving real generalised eigenvalue problem by standard LAPACK (fast)
  Determining occupation numbers for Kohn-Sham eigenstates.
  | Chemical potential (Fermi level) in eV                 : -.24866793E+01
  | Error in electron count due to remaining E_F inaccuracy: 0.48000892E-08
  | Maximum occupation number of highest empty state:  0.00E+00

  Highest occupied state (VBM) at     -2.48667934 eV
  | Occupation number:      1.00000000

  Lowest unoccupied state (CBM) at    -1.12768573 eV
  | Occupation number:      0.00000000

  Overall HOMO-LUMO gap:      1.35899360 eV.

  Total energy components:
  | Sum of eigenvalues            :         -84.58409974 Ha       -2301.65046050 eV
  | XC energy correction          :         -18.81484476 Ha        -511.97797520 eV
  | XC potential correction       :          24.04332361 Ha         654.25212347 eV
  | Free-atom electrostatic energy:         -71.73682494 Ha       -1952.05832632 eV
  | Hartree energy correction     :          -2.48383000 Ha         -67.58845304 eV
  | van der Waals energy corr.    :           0.00000000 Ha           0.00000000 eV
  | Entropy correction            :          -0.00010367 Ha          -0.00282095 eV
  | ---------------------------
  | Total energy                  :        -153.57627583 Ha       -4179.02309159 eV
  | Total energy, T -> 0          :        -153.57637949 Ha       -4179.02591254 eV  <-- do not rely on this value for anything but (periodic) metals
  | Electronic free energy        :        -153.57648316 Ha       -4179.02873349 eV

  Derived energy quantities:
  | Kinetic energy                :         153.04542379 Ha        4164.57787267 eV
  | Electrostatic energy          :        -287.80685485 Ha       -7831.62298906 eV
  | Energy correction for multipole
  | error in Hartree potential    :           0.00136111 Ha           0.03703768 eV
  | Sum of eigenvalues per atom                           :        -328.80720864 eV
  | Total energy (T->0) per atom                          :        -597.00370179 eV  <-- do not rely on this value for anything but (periodic) metals
  | Electronic free energy per atom                       :        -597.00410478 eV

  Self-consistency convergence accuracy:
  | Change of charge density      : 0.5420E-02
  | Change of sum of eigenvalues  : -.8656E+00 eV
  | Change of total energy        : 0.3146E-03 eV

  End self-consistency iteration #     6       :  max(cpu_time)    wall_clock(cpu1)
  | Time for this iteration                    :        0.360 s           0.361 s
  | Charge density update                      :        0.115 s           0.116 s
  | Density mixing                             :        0.005 s           0.005 s
  | Hartree multipole update                   :        0.003 s           0.002 s
  | Hartree multipole summation                :        0.072 s           0.072 s
  | Integration                                :        0.156 s           0.156 s
  | Solution of K.-S. eqns.                    :        0.009 s           0.008 s
  | Total energy evaluation                    :        0.000 s           0.001 s
------------------------------------------------------------

------------------------------------------------------------
          Begin self-consistency iteration #    7

  Date     :  20150727, Time     :  130351.043
------------------------------------------------------------
  Evaluating new KS density.
  Integration grid: deviation in total charge (<rho> - N_e) =   4.800100E-09
  Pulay mixing of updated and previous charge densities.

  Evaluating partitioned Hartree potential by multipole expansion.
  | Analytical far-field extrapolation by fixed multipoles:
  | Hartree multipole sum: apparent total charge =  -0.179992E-05
  Summing up the Hartree potential.
  Time summed over all CPUs for potential: real work        0.569 s, elapsed        0.575 s
  | RMS charge density error from multipole expansion :   0.109423E-01

  Integrating Hamiltonian matrix: batch-based integration.
  Time summed over all CPUs for integration: real work        1.208 s, elapsed        1.244 s

  Updating Kohn-Sham eigenvalues, eigenvectors, occupation numbers, and Fermi level.
  Solving generalized eigenproblem
  Updating Kohn-Sham eigenvalues and eigenfunctions.
  Solving real generalised eigenvalue problem by standard LAPACK (fast)
  Determining occupation numbers for Kohn-Sham eigenstates.
  | Chemical potential (Fermi level) in eV                 : -.24965870E+01
  | Error in electron count due to remaining E_F inaccuracy: 0.00000000E+00
  | Maximum occupation number of highest empty state:  0.00E+00

  Highest occupied state (VBM) at     -2.49658701 eV
  | Occupation number:      1.00000000

  Lowest unoccupied state (CBM) at    -2.49658701 eV
  | Occupation number:      1.00000000

  Overall HOMO-LUMO gap:      0.00000000 eV.

  Total energy components:
  | Sum of eigenvalues            :         -84.58099154 Ha       -2301.56588230 eV
  | XC energy correction          :         -18.81526160 Ha        -511.98931782 eV
  | XC potential correction       :          24.04385840 Ha         654.26667568 eV
  | Free-atom electrostatic energy:         -71.73682494 Ha       -1952.05832632 eV
  | Hartree energy correction     :          -2.48705501 Ha         -67.67621024 eV
  | van der Waals energy corr.    :           0.00000000 Ha           0.00000000 eV
  | Entropy correction            :          -0.00010367 Ha          -0.00282095 eV
  | ---------------------------
  | Total energy                  :        -153.57627470 Ha       -4179.02306100 eV
  | Total energy, T -> 0          :        -153.57637837 Ha       -4179.02588194 eV  <-- do not rely on this value for anything but (periodic) metals
  | Electronic free energy        :        -153.57648204 Ha       -4179.02870289 eV

  Derived energy quantities:
  | Kinetic energy                :         153.04718359 Ha        4164.62575924 eV
  | Electrostatic energy          :        -287.80819669 Ha       -7831.65950241 eV
  | Energy correction for multipole
  | error in Hartree potential    :           0.00136092 Ha           0.03703242 eV
  | Sum of eigenvalues per atom                           :        -328.79512604 eV
  | Total energy (T->0) per atom                          :        -597.00369742 eV  <-- do not rely on this value for anything but (periodic) metals
  | Electronic free energy per atom                       :        -597.00410041 eV

  Self-consistency convergence accuracy:
  | Change of charge density      : 0.1252E-02
  | Change of sum of eigenvalues  : 0.8458E-01 eV
  | Change of total energy        : 0.3060E-04 eV

  End self-consistency iteration #     7       :  max(cpu_time)    wall_clock(cpu1)
  | Time for this iteration                    :        0.362 s           0.361 s
  | Charge density update                      :        0.116 s           0.116 s
  | Density mixing                             :        0.006 s           0.005 s
  | Hartree multipole update                   :        0.002 s           0.003 s
  | Hartree multipole summation                :        0.073 s           0.072 s
  | Integration                                :        0.156 s           0.156 s
  | Solution of K.-S. eqns.                    :        0.008 s           0.009 s
  | Total energy evaluation                    :        0.000 s           0.000 s
------------------------------------------------------------

------------------------------------------------------------
          Begin self-consistency iteration #    8

  Date     :  20150727, Time     :  130351.404
------------------------------------------------------------
  Evaluating new KS density.
  Integration grid: deviation in total charge (<rho> - N_e) =  -1.421085E-14
  Pulay mixing of updated and previous charge densities.

  Evaluating partitioned Hartree potential by multipole expansion.
  | Analytical far-field extrapolation by fixed multipoles:
  | Hartree multipole sum: apparent total charge =  -0.179583E-05
  Summing up the Hartree potential.
  Time summed over all CPUs for potential: real work        0.570 s, elapsed        0.574 s
  | RMS charge density error from multipole expansion :   0.109402E-01

  Integrating Hamiltonian matrix: batch-based integration.
  Time summed over all CPUs for integration: real work        1.211 s, elapsed        1.248 s

  Updating Kohn-Sham eigenvalues, eigenvectors, occupation numbers, and Fermi level.
  Solving generalized eigenproblem
  Updating Kohn-Sham eigenvalues and eigenfunctions.
  Solving real generalised eigenvalue problem by standard LAPACK (fast)
  Determining occupation numbers for Kohn-Sham eigenstates.
  | Chemical potential (Fermi level) in eV                 : -.24954223E+01
  | Error in electron count due to remaining E_F inaccuracy: -.59813487E-09
  | Maximum occupation number of highest empty state:  0.00E+00

  Highest occupied state (VBM) at     -7.05063629 eV
  | Occupation number:      2.00000000

  Lowest unoccupied state (CBM) at    -2.49542231 eV
  | Occupation number:      1.00000000

  Overall HOMO-LUMO gap:      4.55521397 eV.

  Total energy components:
  | Sum of eigenvalues            :         -84.58458744 Ha       -2301.66373161 eV
  | XC energy correction          :         -18.81485399 Ha        -511.97822617 eV
  | XC potential correction       :          24.04331937 Ha         654.25200796 eV
  | Free-atom electrostatic energy:         -71.73682494 Ha       -1952.05832632 eV
  | Hartree energy correction     :          -2.48332725 Ha         -67.57477261 eV
  | van der Waals energy corr.    :           0.00000000 Ha           0.00000000 eV
  | Entropy correction            :          -0.00010367 Ha          -0.00282095 eV
  | ---------------------------
  | Total energy                  :        -153.57627425 Ha       -4179.02304875 eV
  | Total energy, T -> 0          :        -153.57637792 Ha       -4179.02586969 eV  <-- do not rely on this value for anything but (periodic) metals
  | Electronic free energy        :        -153.57648159 Ha       -4179.02869064 eV

  Derived energy quantities:
  | Kinetic energy                :         153.04773382 Ha        4164.64073178 eV
  | Electrostatic energy          :        -287.80915408 Ha       -7831.68555436 eV
  | Energy correction for multipole
  | error in Hartree potential    :           0.00136713 Ha           0.03720152 eV
  | Sum of eigenvalues per atom                           :        -328.80910452 eV
  | Total energy (T->0) per atom                          :        -597.00369567 eV  <-- do not rely on this value for anything but (periodic) metals
  | Electronic free energy per atom                       :        -597.00409866 eV

  Self-consistency convergence accuracy:
  | Change of charge density      : 0.8446E-03
  | Change of sum of eigenvalues  : -.9785E-01 eV
  | Change of total energy        : 0.1225E-04 eV

  End self-consistency iteration #     8       :  max(cpu_time)    wall_clock(cpu1)
  | Time for this iteration                    :        0.362 s           0.362 s
  | Charge density update                      :        0.115 s           0.116 s
  | Density mixing                             :        0.006 s           0.006 s
  | Hartree multipole update                   :        0.003 s           0.002 s
  | Hartree multipole summation                :        0.072 s           0.073 s
  | Integration                                :        0.157 s           0.156 s
  | Solution of K.-S. eqns.                    :        0.008 s           0.009 s
  | Total energy evaluation                    :        0.000 s           0.000 s
------------------------------------------------------------

------------------------------------------------------------
          Begin self-consistency iteration #    9

  Date     :  20150727, Time     :  130351.766
------------------------------------------------------------
  Evaluating new KS density.
  Integration grid: deviation in total charge (<rho> - N_e) =  -5.981384E-10
  Pulay mixing of updated and previous charge densities.

  Evaluating partitioned Hartree potential by multipole expansion.
  | Analytical far-field extrapolation by fixed multipoles:
  | Hartree multipole sum: apparent total charge =  -0.178919E-05
  Summing up the Hartree potential.
  Time summed over all CPUs for potential: real work        0.569 s, elapsed        0.575 s
  | RMS charge density error from multipole expansion :   0.109333E-01

  Integrating Hamiltonian matrix: batch-based integration.
  Time summed over all CPUs for integration: real work        1.208 s, elapsed        1.243 s

  Updating Kohn-Sham eigenvalues, eigenvectors, occupation numbers, and Fermi level.
  Solving generalized eigenproblem
  Updating Kohn-Sham eigenvalues and eigenfunctions.
  Solving real generalised eigenvalue problem by standard LAPACK (fast)
  Determining occupation numbers for Kohn-Sham eigenstates.
  | Chemical potential (Fermi level) in eV                 : -.24984018E+01
  | Error in electron count due to remaining E_F inaccuracy: -.55422333E-12
  | Maximum occupation number of highest empty state:  0.00E+00

  Highest occupied state (VBM) at     -7.05276785 eV
  | Occupation number:      2.00000000

  Lowest unoccupied state (CBM) at    -2.49840179 eV
  | Occupation number:      1.00000000

  Overall HOMO-LUMO gap:      4.55436606 eV.

  Total energy components:
  | Sum of eigenvalues            :         -84.58688370 Ha       -2301.72621606 eV
  | XC energy correction          :         -18.81456414 Ha        -511.97033914 eV
  | XC potential correction       :          24.04294152 Ha         654.24172621 eV
  | Free-atom electrostatic energy:         -71.73682494 Ha       -1952.05832632 eV
  | Hartree energy correction     :          -2.48094278 Ha         -67.50988787 eV
  | van der Waals energy corr.    :           0.00000000 Ha           0.00000000 eV
  | Entropy correction            :          -0.00010367 Ha          -0.00282095 eV
  | ---------------------------
  | Total energy                  :        -153.57627405 Ha       -4179.02304318 eV
  | Total energy, T -> 0          :        -153.57637772 Ha       -4179.02586412 eV  <-- do not rely on this value for anything but (periodic) metals
  | Electronic free energy        :        -153.57648138 Ha       -4179.02868507 eV

  Derived energy quantities:
  | Kinetic energy                :         153.04912243 Ha        4164.67851779 eV
  | Electrostatic energy          :        -287.81083233 Ha       -7831.73122183 eV
  | Energy correction for multipole
  | error in Hartree potential    :           0.00136998 Ha           0.03727914 eV
  | Sum of eigenvalues per atom                           :        -328.81803087 eV
  | Total energy (T->0) per atom                          :        -597.00369487 eV  <-- do not rely on this value for anything but (periodic) metals
  | Electronic free energy per atom                       :        -597.00409787 eV

  Self-consistency convergence accuracy:
  | Change of charge density      : 0.3669E-03
  | Change of sum of eigenvalues  : -.6248E-01 eV
  | Change of total energy        : 0.5571E-05 eV

  End self-consistency iteration #     9       :  max(cpu_time)    wall_clock(cpu1)
  | Time for this iteration                    :        0.362 s           0.362 s
  | Charge density update                      :        0.115 s           0.116 s
  | Density mixing                             :        0.006 s           0.007 s
  | Hartree multipole update                   :        0.003 s           0.002 s
  | Hartree multipole summation                :        0.072 s           0.073 s
  | Integration                                :        0.156 s           0.155 s
  | Solution of K.-S. eqns.                    :        0.008 s           0.009 s
  | Total energy evaluation                    :        0.000 s           0.000 s
------------------------------------------------------------

------------------------------------------------------------
          Begin self-consistency iteration #   10

  Date     :  20150727, Time     :  130352.128
------------------------------------------------------------
  Evaluating new KS density.
  Integration grid: deviation in total charge (<rho> - N_e) =  -5.542233E-13
  Pulay mixing of updated and previous charge densities.

  Evaluating partitioned Hartree potential by multipole expansion.
  | Analytical far-field extrapolation by fixed multipoles:
  | Hartree multipole sum: apparent total charge =  -0.178696E-05
  Summing up the Hartree potential.
  Time summed over all CPUs for potential: real work        0.570 s, elapsed        0.574 s
  | RMS charge density error from multipole expansion :   0.109342E-01

  Integrating Hamiltonian matrix: batch-based integration.
  Time summed over all CPUs for integration: real work        1.209 s, elapsed        1.244 s

  Updating Kohn-Sham eigenvalues, eigenvectors, occupation numbers, and Fermi level.
  Solving generalized eigenproblem
  Updating Kohn-Sham eigenvalues and eigenfunctions.
  Solving real generalised eigenvalue problem by standard LAPACK (fast)
  Determining occupation numbers for Kohn-Sham eigenstates.
  | Chemical potential (Fermi level) in eV                 : -.24990279E+01
  | Error in electron count due to remaining E_F inaccuracy: 0.38995402E-08
  | Maximum occupation number of highest empty state:  0.00E+00

  Highest occupied state (VBM) at     -2.49902788 eV
  | Occupation number:      1.00000000

  Lowest unoccupied state (CBM) at    -1.12305122 eV
  | Occupation number:      0.00000000

  Overall HOMO-LUMO gap:      1.37597666 eV.

  Total energy components:
  | Sum of eigenvalues            :         -84.58631160 Ha       -2301.71064845 eV
  | XC energy correction          :         -18.81463581 Ha        -511.97228934 eV
  | XC potential correction       :          24.04303757 Ha         654.24433984 eV
  | Free-atom electrostatic energy:         -71.73682494 Ha       -1952.05832632 eV
  | Hartree energy correction     :          -2.48153931 Ha         -67.52612027 eV
  | van der Waals energy corr.    :           0.00000000 Ha           0.00000000 eV
  | Entropy correction            :          -0.00010367 Ha          -0.00282095 eV
  | ---------------------------
  | Total energy                  :        -153.57627410 Ha       -4179.02304453 eV
  | Total energy, T -> 0          :        -153.57637776 Ha       -4179.02586548 eV  <-- do not rely on this value for anything but (periodic) metals
  | Electronic free energy        :        -153.57648143 Ha       -4179.02868642 eV

  Derived energy quantities:
  | Kinetic energy                :         153.04908924 Ha        4164.67761466 eV
  | Electrostatic energy          :        -287.81072752 Ha       -7831.72836985 eV
  | Energy correction for multipole
  | error in Hartree potential    :           0.00136899 Ha           0.03725218 eV
  | Sum of eigenvalues per atom                           :        -328.81580692 eV
  | Total energy (T->0) per atom                          :        -597.00369507 eV  <-- do not rely on this value for anything but (periodic) metals
  | Electronic free energy per atom                       :        -597.00409806 eV

  Self-consistency convergence accuracy:
  | Change of charge density      : 0.1474E-03
  | Change of sum of eigenvalues  : 0.1557E-01 eV
  | Change of total energy        : -.1353E-05 eV

  End self-consistency iteration #    10       :  max(cpu_time)    wall_clock(cpu1)
  | Time for this iteration                    :        0.363 s           0.363 s
  | Charge density update                      :        0.116 s           0.116 s
  | Density mixing                             :        0.007 s           0.008 s
  | Hartree multipole update                   :        0.003 s           0.002 s
  | Hartree multipole summation                :        0.072 s           0.072 s
  | Integration                                :        0.156 s           0.156 s
  | Solution of K.-S. eqns.                    :        0.009 s           0.009 s
  | Total energy evaluation                    :        0.000 s           0.000 s
------------------------------------------------------------

------------------------------------------------------------
          Begin self-consistency iteration #   11

  Date     :  20150727, Time     :  130352.491
------------------------------------------------------------
  Evaluating new KS density.
  Integration grid: deviation in total charge (<rho> - N_e) =   3.899533E-09
  Pulay mixing of updated and previous charge densities.

  Evaluating partitioned Hartree potential by multipole expansion.
  | Analytical far-field extrapolation by fixed multipoles:
  | Hartree multipole sum: apparent total charge =  -0.178803E-05
  Summing up the Hartree potential.
  Time summed over all CPUs for potential: real work        0.569 s, elapsed        0.574 s
  | RMS charge density error from multipole expansion :   0.109338E-01

  Integrating Hamiltonian matrix: batch-based integration.
  Time summed over all CPUs for integration: real work        1.210 s, elapsed        1.245 s

[...]

  Highest occupied state (VBM) at     -2.49876600 eV
  | Occupation number:      1.00000000

  Lowest unoccupied state (CBM) at    -2.49876600 eV
  | Occupation number:      1.00000000

  Overall HOMO-LUMO gap:      0.00000000 eV.

  Self-consistency cycle converged.

  End self-consistency iteration #    14       :  max(cpu_time)    wall_clock(cpu1)
  | Time for this iteration                    :        0.941 s           0.940 s
  | Charge density & force component update    :        0.575 s           0.574 s
  | Density mixing                             :        0.008 s           0.008 s
  | Hartree multipole update                   :        0.003 s           0.003 s
  | Hartree multipole summation                :        0.189 s           0.189 s
  | Integration                                :        0.156 s           0.156 s
  | Solution of K.-S. eqns.                    :        0.009 s           0.009 s
  | Total energy evaluation                    :        0.000 s           0.000 s
------------------------------------------------------------
  Obtaining max. number of non-zero basis functions in each batch .
  Evaluating KS electron density on previously omitted grid points.
  Evaluating non-empirical van der Waals correction (Tkatchenko/Scheffler 2009).
  Performing Hirshfeld analysis of fragment charges and moments.
  ----------------------------------------------------------------------
  | Atom     1: O
  |   Hirshfeld charge        :     -0.12351147
  |   Free atom volume        :     23.95238533
  |   Hirshfeld volume        :     24.53746464
  |   Hirshfeld dipole vector :      0.01005881       0.01822054       0.02949764
  |   Hirshfeld dipole moment :      0.03610095
  |   Hirshfeld second moments:      0.03229571      -0.00186965      -0.01271897
  |                                 -0.00186965      -0.02760279      -0.02837405
  |                                 -0.01271897      -0.02837405       0.01699676
  ----------------------------------------------------------------------
  | Atom     2: H
  |   Hirshfeld charge        :     -0.00242859
  |   Free atom volume        :     10.44207651
  |   Hirshfeld volume        :     17.62174728
  |   Hirshfeld dipole vector :      0.02880392      -0.05754701       0.02938750
  |   Hirshfeld dipole moment :      0.07074566
  |   Hirshfeld second moments:     -0.10889793       0.00479360      -0.00259586
  |                                  0.00479360      -0.14927392       0.00497681
  |                                 -0.00259586       0.00497681      -0.09240236
  ----------------------------------------------------------------------
  | Atom     3: H
  |   Hirshfeld charge        :      0.07628645
  |   Free atom volume        :     10.44207651
  |   Hirshfeld volume        :     14.62169804
  |   Hirshfeld dipole vector :      0.01557462      -0.00462115       0.00985817
  |   Hirshfeld dipole moment :      0.01900282
  |   Hirshfeld second moments:     -0.03390978      -0.01013056      -0.00882125
  |                                 -0.01013056      -0.07024649       0.00229888
  |                                 -0.00882125       0.00229888      -0.02985408
  ----------------------------------------------------------------------
  | Atom     4: H
  |   Hirshfeld charge        :      0.09707058
  |   Free atom volume        :     10.44207651
  |   Hirshfeld volume        :     13.07303332
  |   Hirshfeld dipole vector :     -0.00485346       0.00014355       0.04187201
  |   Hirshfeld dipole moment :      0.04215260
  |   Hirshfeld second moments:     -0.01900060       0.00917579      -0.00397668
  |                                  0.00917579      -0.02045437       0.00065146
  |                                 -0.00397668       0.00065146      -0.00455696
  ----------------------------------------------------------------------
  | Atom     5: O
  |   Hirshfeld charge        :     -0.31014230
  |   Free atom volume        :     23.95238533
  |   Hirshfeld volume        :     23.68707120
  |   Hirshfeld dipole vector :     -0.02800674       0.03636423       0.05668980
  |   Hirshfeld dipole moment :      0.07294153
  |   Hirshfeld second moments:     -0.04030617      -0.05083592       0.03628657
  |                                 -0.05083592      -0.03834299      -0.02541989
  |                                  0.03628657      -0.02541989       0.00299231
  ----------------------------------------------------------------------
  | Atom     6: H
  |   Hirshfeld charge        :      0.13674216
  |   Free atom volume        :     10.44207651
  |   Hirshfeld volume        :      7.24267251
  |   Hirshfeld dipole vector :      0.02069502      -0.01005443       0.12409825
  |   Hirshfeld dipole moment :      0.12621312
  |   Hirshfeld second moments:      0.09893050      -0.01929411       0.00835750
  |                                 -0.01929411       0.09620064      -0.00888463
  |                                  0.00835750      -0.00888463       0.09285648
  ----------------------------------------------------------------------
  | Atom     7: H
  |   Hirshfeld charge        :      0.12595395
  |   Free atom volume        :     10.44207651
  |   Hirshfeld volume        :      8.56618155
  |   Hirshfeld dipole vector :     -0.07719022       0.08655788       0.00056335
  |   Hirshfeld dipole moment :      0.11597807
  |   Hirshfeld second moments:      0.06640938      -0.01176499      -0.00029466
  |                                 -0.01176499       0.07582082      -0.00437490
  |                                 -0.00029466      -0.00437490       0.07134321
  ----------------------------------------------------------------------


  Total energy components:
  | Sum of eigenvalues            :         -84.58637164 Ha       -2301.71228212 eV
  | XC energy correction          :         -18.81461984 Ha        -511.97185457 eV
  | XC potential correction       :          24.04301774 Ha         654.24380020 eV
  | Free-atom electrostatic energy:         -71.73682494 Ha       -1952.05832632 eV
  | Hartree energy correction     :          -2.48147544 Ha         -67.52438230 eV
  | van der Waals energy corr.    :          -0.00041997 Ha          -0.01142805 eV
  | Entropy correction            :          -0.00010367 Ha          -0.00282095 eV
  | ---------------------------
  | Total energy                  :        -153.57669409 Ha       -4179.03447315 eV
  | Total energy, T -> 0          :        -153.57679776 Ha       -4179.03729410 eV  <-- do not rely on this value for anything but (periodic) metals
  | Electronic free energy        :        -153.57690143 Ha       -4179.04011505 eV

  Derived energy quantities:
  | Kinetic energy                :         153.04902092 Ha        4164.67575550 eV
  | Electrostatic energy          :        -287.81067520 Ha       -7831.72694603 eV
  | Energy correction for multipole
  | error in Hartree potential    :           0.00136907 Ha           0.03725442 eV
  | Sum of eigenvalues per atom                           :        -328.81604030 eV
  | Total energy (T->0) per atom                          :        -597.00532773 eV  <-- do not rely on this value for anything but (periodic) metals
  | Electronic free energy per atom                       :        -597.00573072 eV

  atomic forces [eV/Ang]:
  -----------------------
  atom #    1
   Hellmann-Feynman + Multipole  : -.314321E+01 -.658222E+01 -.818141E+01
   Pulay + GGA                   : 0.294770E+01 0.724395E+01 0.772536E+01
   Van der Waals               : 0.640277E-04 0.166460E-02 0.294895E-02
   ----------------------------------------------------------------
   Total forces(   1)            : -.195453E+00 0.663389E+00 -.453098E+00
  atom #    2
   Hellmann-Feynman + Multipole  : 0.228386E+00 -.627479E+00 0.204436E+00
   Pulay + GGA                   : -.985289E-01 0.162404E+00 -.784963E-01
   Van der Waals               : 0.361878E-03 0.955823E-03 0.299606E-02
   ----------------------------------------------------------------
   Total forces(   2)            : 0.130219E+00 -.464119E+00 0.128936E+00
  atom #    3
   Hellmann-Feynman + Multipole  : -.104569E+00 -.138092E+00 0.941752E-01
   Pulay + GGA                   : 0.181779E+00 0.280908E-01 0.870869E-03
   Van der Waals               : -.620090E-03 0.131195E-02 0.264357E-02
   ----------------------------------------------------------------
   Total forces(   3)            : 0.765901E-01 -.108690E+00 0.976896E-01
  atom #    4
   Hellmann-Feynman + Multipole  : 0.535624E-01 0.137721E-02 0.137045E+00
   Pulay + GGA                   : -.618645E-01 -.506574E-01 0.144126E+00
   Van der Waals               : -.250956E-03 0.433091E-03 0.320509E-03
   ----------------------------------------------------------------
   Total forces(   4)            : -.855304E-02 -.488471E-01 0.281491E+00
  atom #    5
   Hellmann-Feynman + Multipole  : 0.704099E+01 -.761173E+01 -.109715E+02
   Pulay + GGA                   : -.837938E+01 0.901492E+01 0.124398E+02
   Van der Waals               : 0.199483E-03 -.134984E-02 -.430599E-02
   ----------------------------------------------------------------
   Total forces(   5)            : -.133818E+01 0.140184E+01 0.146405E+01
  atom #    6
   Hellmann-Feynman + Multipole  : -.471764E+00 0.332460E+00 -.224091E+01
   Pulay + GGA                   : 0.156814E-01 0.404194E-02 0.145599E+00
   Van der Waals               : -.110958E-03 -.589216E-03 -.134004E-02
   ----------------------------------------------------------------
   Total forces(   6)            : -.456194E+00 0.335913E+00 -.209665E+01
  atom #    7
   Hellmann-Feynman + Multipole  : 0.190148E+01 -.187571E+01 0.615235E+00
   Pulay + GGA                   : -.106220E+00 0.997630E-01 -.236998E-01
   Van der Waals               : 0.356615E-03 -.242640E-02 -.326306E-02
   ----------------------------------------------------------------
   Total forces(   7)            : 0.179561E+01 -.177837E+01 0.588273E+00
  Timings for vdw_correction_hirshfeld (Tkatchenko-Scheffler 2009):
  | CPU time:        0.941 s, Wall clock time:        0.940 s.
  Removing unitary transformations (pure translations, rotations) from forces on atoms.
  Atomic forces before filtering:
  | Net force on center of mass :  0.403630E-02 0.111039E-02 0.106952E-01 eV/A
  | Net torque on center of mass:  0.362833E-02 -.992220E-02 0.324302E-02 eV
  Atomic forces after filtering:
  | Net force on center of mass :  0.000000E+00 0.000000E+00 0.178406E-15 eV/A
  | Net torque on center of mass:  -.151054E-14 -.283225E-15 0.000000E+00 eV
 
  Energy and forces in a compact form:
  | Total energy uncorrected      :         -0.417903447315484E+04 eV
  | Total energy corrected        :         -0.417903729410276E+04 eV  <-- do not rely on this value for anything but (periodic) metals
  | Electronic free energy        :         -0.417904011505068E+04 eV
  Total atomic forces (unitary forces cleaned) [eV/Ang]:
  |   1         -0.196589857002260E+00          0.663023291573514E+00         -0.454489549691670E+00
  |   2          0.128762693256306E+00         -0.464616906195832E+00          0.127656086909779E+00
  |   3          0.754267093743568E-01         -0.108879162569604E+00          0.958591471471018E-01
  |   4         -0.927470629508880E-02         -0.491618236169397E-01          0.280244119113919E+00
  |   5         -0.133811980116720E+01          0.140192715305024E+01          0.146234342584935E+01
  |   6         -0.455696275813599E+00          0.336135783563431E+00         -0.209839998433328E+01
  |   7          0.179549123764748E+01         -0.177842833580481E+01          0.586786755004796E+00
 
  ------------------------------------ 
  Start decomposition of the XC Energy 
  ------------------------------------ 
  Hartree-Fock part   :          0.000000000 Ha              0.000000000 eV
  ------------------------------------ 
  X Energy            :        -18.150672522 Ha           -493.904928919 eV
  C Energy GGA        :         -0.663947314 Ha            -18.066925650 eV
  Total XC Energy     :        -18.814619836 Ha           -511.971854569 eV
  LDA X and C from self-consistent density 
  X Energy LDA        :        -16.334195380 Ha           -444.476070995 eV
  C Energy LDA        :         -1.352288086 Ha            -36.797631066 eV
  ------------------------------------ 
  End decomposition of the XC Energy 
  ------------------------------------ 
  Performing Hirshfeld analysis of fragment charges and moments.
  ----------------------------------------------------------------------
  | Atom     1: O
  |   Hirshfeld charge        :     -0.12351147
  |   Free atom volume        :     23.95238533
  |   Hirshfeld volume        :     24.53746464
  |   Hirshfeld dipole vector :      0.01005881       0.01822054       0.02949764
  |   Hirshfeld dipole moment :      0.03610095
  |   Hirshfeld second moments:      0.03229571      -0.00186965      -0.01271897
  |                                 -0.00186965      -0.02760279      -0.02837405
  |                                 -0.01271897      -0.02837405       0.01699676
  ----------------------------------------------------------------------
  | Atom     2: H
  |   Hirshfeld charge        :     -0.00242859
  |   Free atom volume        :     10.44207651
  |   Hirshfeld volume        :     17.62174728
  |   Hirshfeld dipole vector :      0.02880392      -0.05754701       0.02938750
  |   Hirshfeld dipole moment :      0.07074566
  |   Hirshfeld second moments:     -0.10889793       0.00479360      -0.00259586
  |                                  0.00479360      -0.14927392       0.00497681
  |                                 -0.00259586       0.00497681      -0.09240236
  ----------------------------------------------------------------------
  | Atom     3: H
  |   Hirshfeld charge        :      0.07628645
  |   Free atom volume        :     10.44207651
  |   Hirshfeld volume        :     14.62169804
  |   Hirshfeld dipole vector :      0.01557462      -0.00462115       0.00985817
  |   Hirshfeld dipole moment :      0.01900282
  |   Hirshfeld second moments:     -0.03390978      -0.01013056      -0.00882125
  |                                 -0.01013056      -0.07024649       0.00229888
  |                                 -0.00882125       0.00229888      -0.02985408
  ----------------------------------------------------------------------
  | Atom     4: H
  |   Hirshfeld charge        :      0.09707058
  |   Free atom volume        :     10.44207651
  |   Hirshfeld volume        :     13.07303332
  |   Hirshfeld dipole vector :     -0.00485346       0.00014355       0.04187201
  |   Hirshfeld dipole moment :      0.04215260
  |   Hirshfeld second moments:     -0.01900060       0.00917579      -0.00397668
  |                                  0.00917579      -0.02045437       0.00065146
  |                                 -0.00397668       0.00065146      -0.00455696
  ----------------------------------------------------------------------
  | Atom     5: O
  |   Hirshfeld charge        :     -0.31014230
  |   Free atom volume        :     23.95238533
  |   Hirshfeld volume        :     23.68707120
  |   Hirshfeld dipole vector :     -0.02800674       0.03636423       0.05668980
  |   Hirshfeld dipole moment :      0.07294153
  |   Hirshfeld second moments:     -0.04030617      -0.05083592       0.03628657
  |                                 -0.05083592      -0.03834299      -0.02541989
  |                                  0.03628657      -0.02541989       0.00299231
  ----------------------------------------------------------------------
  | Atom     6: H
  |   Hirshfeld charge        :      0.13674216
  |   Free atom volume        :     10.44207651
  |   Hirshfeld volume        :      7.24267251
  |   Hirshfeld dipole vector :      0.02069502      -0.01005443       0.12409825
  |   Hirshfeld dipole moment :      0.12621312
  |   Hirshfeld second moments:      0.09893050      -0.01929411       0.00835750
  |                                 -0.01929411       0.09620064      -0.00888463
  |                                  0.00835750      -0.00888463       0.09285648
  ----------------------------------------------------------------------
  | Atom     7: H
  |   Hirshfeld charge        :      0.12595395
  |   Free atom volume        :     10.44207651
  |   Hirshfeld volume        :      8.56618155
  |   Hirshfeld dipole vector :     -0.07719022       0.08655788       0.00056335
  |   Hirshfeld dipole moment :      0.11597807
  |   Hirshfeld second moments:      0.06640938      -0.01176499      -0.00029466
  |                                 -0.01176499       0.07582082      -0.00437490
  |                                 -0.00029466      -0.00437490       0.07134321
  ----------------------------------------------------------------------


------------------------------------------------------------------------------
  Final output of selected total energy values:

  The following output summarizes some interesting total energy values
  at the end of a run (AFTER all relaxation, molecular dynamics, etc.).

  | Total energy of the DFT / Hartree-Fock s.c.f. calculation      :          -4179.034473155 eV
  | Final zero-broadening corrected energy (caution - metals only) :          -4179.037294103 eV
  | For reference only, the value of 1 Hartree used in FHI-aims is :             27.211384500 eV

  Before relying on these values, please be sure to understand exactly which
  total energy value is referred to by a given number. Different objects may
  all carry the same name 'total energy'. Definitions:

  Total energy of the DFT / Hartree-Fock s.c.f. calculation:
  | Note that this energy does not include ANY quantities calculated after the
  | s.c.f. cycle, in particular not ANY RPA, MP2, etc. many-body perturbation terms.

  Final zero-broadening corrected energy:
  | For metallic systems only, a broadening of the occupation numbers at the Fermi
  | level can be extrapolated back to zero broadening by an electron-gas inspired
  | formula. For all systems that are not real metals, this value can be
  | meaningless and should be avoided.

------------------------------------------------------------------------------

------------------------------------------------------------
          Leaving FHI-aims.
          Date     :  20150727, Time     :  130354.682

          Computational steps:
          | Number of self-consistency cycles          :           14

          Detailed time accounting                     :  max(cpu_time)    wall_clock(cpu1)
          | Total time                                 :        6.753 s           6.773 s
          | Preparation time                           :        0.170 s           0.530 s
          | Grid partitioning                          :        0.069 s           0.069 s
          | Preloading free-atom quantities on grid    :        0.013 s           0.013 s
          | Free-atom superposition energy             :        0.020 s           0.020 s
          | Total time for integrations                :        2.424 s           2.421 s
          | Total time for solution of K.-S. equations :        0.151 s           0.156 s
          | Total time for density & force components  :        2.084 s           2.085 s
          | Total time for mixing                      :        0.075 s           0.079 s
          | Total time for Hartree multipole update    :        0.036 s           0.034 s
          | Total time for Hartree multipole sum       :        1.248 s           1.246 s
          | Total time for total energy evaluation     :        0.002 s           0.002 s
          | Total time for scaled ZORA corrections     :        0.000 s           0.000 s
          | Total time for TS (2009) vdW correction    :        0.013 s           0.013 s

          Have a nice day.
------------------------------------------------------------
