  MPI-parallelism will be employed.
------------------------------------------------------------
          Invoking FHI-aims ...
          Version 081213
          Compiled on 2013/08/29 at 17:41:06 on host generoso.

          When using FHI-aims, please cite the following reference:

          Volker Blum, Ralf Gehrke, Felix Hanke, Paula Havu,
          Ville Havu, Xinguo Ren, Karsten Reuter, and Matthias Scheffler,
          'Ab Initio Molecular Simulations with Numeric Atom-Centered Orbitals: FHI-aims',
          Computer Physics Communications 180, 2175-2196 (2009)

          For any questions about FHI-aims, please visit the aimsclub website
          with its forums and wiki. Contributions to both the forums and the
          wiki are warmly encouraged - they are for you, and everyone is welcome there.

------------------------------------------------------------

  Date     :  20150727, Time     :  124954.884
  Time zero on CPU 1             :   0.469920000000000E-01  s.
  Internal wall clock time zero  :           207233394.884  s.

  Using        8 parallel tasks.
  Task        0 on host gen59 reporting.
  Task        1 on host gen59 reporting.
  Task        2 on host gen59 reporting.
  Task        3 on host gen59 reporting.
  Task        4 on host gen59 reporting.
  Task        5 on host gen59 reporting.
  Task        6 on host gen59 reporting.
  Task        7 on host gen59 reporting.

  Performing system and environment tests:
  | Environment variable OMP_NUM_THREADS correctly set to 1.
  | Checking for scalapack...
  | No scalapack compiled in.

  Obtaining array dimensions for all initial allocations:
  
  -----------------------------------------------------------------------
  Parsing control.in (first pass over file, find array dimensions only).
  The contents of control.in will be repeated verbatim below
  unless switched off by setting 'verbatim_writeout .false.' .
  in the first line of control.in .
  -----------------------------------------------------------------------
  
  #########################################################################################
  #
  #  Volker Blum, FHI 2008 : Test run input file control.in
  #
  #########################################################################################
  #
  #  Physical model
  #
    xc                 rpbe
    spin               none
    relativistic       atomic_zora scalar
    charge             0.
   vdw_correction_hirshfeld
  #
  #  SCF convergence
  #
    occupation_type    gaussian 0.01
    mixer              pulay
      n_max_pulay        10
      charge_mix_param   0.1
    sc_accuracy_rho    5E-5
    sc_accuracy_eev    5E-3
    sc_accuracy_etot   5E-6
    sc_iter_limit      3000
  #
  #  Eigenvalue solver
  #
    KS_method          lapack
      empty_states       8
      basis_threshold    0.e-5
  #
  #  Efficiency
  #
  #   all previous settings are now default, except stratmann still
  #   undecided. Continue to handle stratmann with care, if at all.
  #
  #  partition_type stratmann
    partition_type rho_r2
  #  hartree_partition_type stratmann
  #
  #  Oprions for large clusters (100's of atoms: memory saving / better scaling)
  #
  # for periodic systems:
  #
    density_update_method orbital
    packed_matrix_format none
  #  k_grid 6 6 6
  #  output k_eigenvalue 1
  #  distributed_spline_storage .true.
  #
  #  Relaxation
  #
  #  relax_geometry   bfgs 5.e-3
    sc_accuracy_forces 5.E-4
    final_forces_cleaned .true.
  #
  #  Output options
  #
  #  output mulliken
    output Hirshfeld
  #  output dipole
  
  #harmonic_length_scale 0.001
  
  ################################################################################
  #
  #  FHI-aims code project
  #  VB, Fritz-Haber Institut, 2007
  #
  #  Suggested "safe" defaults for H atom (to be pasted into control.in file)
  #  Basis constructed for a non-relativistic H2 molecule using the
  #  PW-LDA functional.
  #
  ################################################################################
    species        H
  #     global species definitions
      nucleus             1
      cut_pot             4.0  2.0  1.0
      cut_free_atom       finite 8.0
      logarithmic         0.00010000 100.00  1.0123
      basis_dep_cutoff    1d-4  # 1d-4 is safe default - please check 5d-4 if you wish!
      radial_base         24 7.0
      radial_multiplier   2
      angular_grids       specified
        division   0.2783  110
        division   0.3822  194
        division   0.5626  302
  #      division   0.5922  434
  #      division   0.6227  590
  #      division   0.7206  770
        outer_grid  302
      l_hartree           4
  ################################################################################
  #
  #  Definition of "minimal" basis
  #
  ################################################################################
  #     valence basis states
      valence      1  s   1.
  #     ion occupancy
      ion_occ      1  s   0.5
  ################################################################################
  #
  #  Suggested additional basis functions. For production calculations,
  #  uncomment them one after another (the most important basis functions are
  #  listed first).
  #
  ################################################################################
  #  "First tier" - improvements: -1014.90 meV to -62.69 meV
       hydro 2 s 2.1
       hydro 2 p 3.5
  #  "Second tier" - improvements: -12.89 meV to -1.83 meV
       hydro 1 s 0.85
       hydro 2 p 3.7
       hydro 2 s 1.2
       hydro 3 d 7
  #  "Third tier" - improvements: -0.25 meV to -0.12 meV
  #     hydro 4 f 11.2
  #     hydro 3 p 4.8
  #     hydro 4 d 9
  #     hydro 3 s 3.2
  
  ################################################################################
  #
  #  FHI-aims code project
  #  VB, Fritz-Haber Institut, 2007
  #
  #  Suggested "safe" defaults for O atom (to be pasted into control.in file)
  #  All values have been tested for a non-relativistic, non-spinpolarized O2
  #  molecule using the PW-LDA functional. Validity for PBE is expected.
  #
  #  Constructed for dimers: 1.0 A, 1.208 A, 1.5 A, 2.0 A, 3.0 A
  #
  ################################################################################
    species        O
  #     global species definitions
      nucleus             8
      mass                15.9994
      l_hartree           4
      cut_pot             4.0  2.0  1.0
      cut_free_atom       finite 8.0
      basis_dep_cutoff    1d-4  # 1d-4 is safe default - please check 5d-4 if you wish!
      logarithmic         0.00010000 100.00  1.0123
      radial_base         36 7.0
      radial_multiplier   2
       angular_grids specified
        division   0.4087  110
        division   0.5181  194
        division   0.6184  302
  #      division   0.7315  434
  #      division   0.7934  590
  #      division   0.9656  770
  #      division   1.4041  974
  #      outer_grid 974
        outer_grid 302
  ################################################################################
  #
  #  Definition of "minimal" basis
  #
  ################################################################################
  #     valence basis states
      valence      2  s   2.
      valence      2  p   4.
  #     ion occupancy
      ion_occ      2  s   1.
      ion_occ      2  p   3.
  ################################################################################
  #
  #  Suggested additional basis functions. For production calculations,
  #  uncomment them one after another (the most important basis functions are
  #  listed first).
  #
  ################################################################################
  #  "First tier" - improvements: -699.05 meV to -159.38 meV
       hydro 2 p 1.8
       hydro 3 d 7.6
       hydro 3 s 6.4
  #  "Second tier" - improvements: -49.91 meV to -5.39 meV
       hydro 4 f 11.6
       hydro 3 p 6.2
       hydro 3 d 5.6
       hydro 5 g 17.6
       hydro 1 s 0.75
  #  "Third tier" - improvements: -2.83 meV to -0.50 meV
  #     ionic 2 p auto
  #     hydro 4 f 10.8
  #     hydro 4 d 4.7
  #     hydro 2 s 6.8
  #  "Fourth tier" - improvements: -0.40 meV to -0.12 meV
  #     hydro 3 p 5
  #     hydro 3 s 3.3
  #     hydro 5 g 15.6
  #     hydro 4 f 17.6
  #     hydro 4 d 14
  # Further basis functions - -0.08 meV and below
  #     hydro 3 s 2.1
  #     hydro 4 d 11.6
  #     hydro 3 p 16
  #     hydro 2 s 17.2
  
  
  -----------------------------------------------------------------------
  Completed first pass over input file control.in .
  -----------------------------------------------------------------------
  
  
  -----------------------------------------------------------------------
  Parsing geometry.in (first pass over file, find array dimensions only).
  The contents of geometry.in will be repeated verbatim below
  unless switched off by setting 'verbatim_writeout .false.' .
  in the first line of geometry.in .
  -----------------------------------------------------------------------
  
  atom      -4.053030000      0.065001000     -1.525160000  O
  atom      -4.566710000      0.974813000     -1.912820000  H
  atom      -3.067820000      0.330172000     -1.477310000  H
  atom      -4.370360000     -0.049164000     -0.572274000  H
  atom      -5.293160000      2.192130000     -2.328800000  O
  atom      -4.829300000      2.988660000     -1.973850000  H
  atom      -5.428570000      2.328640000     -3.235170000  H
  atom      -1.975360000      2.858040000      0.453140000  O
  atom      -1.223550000      3.375850000      0.786238000  H
  atom      -2.537520000      2.567960000      1.156120000  H
  atom      -4.066610000      4.258280000     -0.900064000  O
  atom      -3.224110000      3.876870000     -0.569443000  H
  atom      -3.737450000      5.116530000     -1.322720000  H
  atom      -5.628340000      3.730740000      1.385610000  O
  atom      -6.090650000      4.418470000      1.860350000  H
  atom      -5.158540000      4.200260000      0.615875000  H
  
  -----------------------------------------------------------------------
  Completed first pass over input file geometry.in .
  -----------------------------------------------------------------------
  
 
  Basic array size parameters: 
  | Number of species                 :        2
  | Number of atoms                   :       16
  | Max. basis fn. angular momentum   :        4
  | Max. atomic/ionic basis occupied n:        2
  | Max. number of basis fn. types    :        2
  | Max. radial fns per species/type  :        8
  | Max. logarithmic grid size        :     1301
  | Max. radial integration grid size :       73
  | Max. angular integration grid size:      302
  | Max. angular grid division number :        8
  | Radial grid for Hartree potential :     1301
  | Number of spin channels           :        1

------------------------------------------------------------
          Reading file control.in.
------------------------------------------------------------
  XC: Using RPBE gradient-corrected functionals.
  Spin treatment: No spin polarisation.
  Scalar relativistic treatment of kinetic energy: on-site free-atom approximation to ZORA.
  Charge =   0.000000E+00: Neutral system requested explicitly.
  Using non-empirical van der Waals correction (Hirshfeld partitioning):
  Occupation type: Gaussian broadening, width =   0.100000E-01 eV.
  Using pulay charge density mixing.
  Pulay mixing - number of memorized iterations:   10
  Charge density mixing - mixing parameter:     0.1000
  Convergence accuracy of self-consistent charge density: 0.5000E-04
  Convergence accuracy of sum of eigenvalues: 0.5000E-02
  Convergence accuracy of total energy: 0.5000E-05
  Maximum number of s.-c. iterations  :  3000
  Kohn-Sham eigenvalues and eigenfunctions calculated by lapack diagonalisation (D&C).
  Number of empty states per atom:        8
  Threshold for basis singularities: 0.0000E+00
  Partition function in integrals calculations: rho / r^2
 Using packed matrix format           0
  Convergence accuracy of forces: 0.5000E-03
  Cleaning forces before final output.
  Hirshfeld charge analysis will be performed.
 
  Reading configuration options for species H                   .
  | Found nuclear charge :   1.0000
  | Found cutoff potl. onset [A], width [A], scale factor :    4.00000    2.00000    1.00000
  | Found cutoff specification for free atom: Cutoff potential begins at    8.00000 A.
  | Found logarithmic grid data [bohr] : 0.1000E-03 0.1000E+03 0.1012E+01
  | Threshold for basis-dependent cutoff potential is   0.100000E-03
  | Found data for basic radial integration grid :    24 points, outermost radius =    7.000 A
  | Found multiplier for basic radial grid :   2
  | Found angular grid specification: user-specified.
  | Specified grid contains     4 separate shells.
  | Check grid settings after all constraints further below.
  | Found l_max for Hartree potential  :   4
  | Found free-atom valence shell :  1 s   1.000
  | No ionic wave fns used. Skipping ion_occ.
  | Found hydrogenic basis function :  2 s   2.100
  | Found hydrogenic basis function :  2 p   3.500
  | Found hydrogenic basis function :  1 s   0.850
  | Found hydrogenic basis function :  2 p   3.700
  | Found hydrogenic basis function :  2 s   1.200
  | Found hydrogenic basis function :  3 d   7.000
  Species H                   : Missing cutoff potential type.
  Defaulting to exp(1/x)/(1-x)^2 type cutoff potential.
  Species H : On-site basis accuracy parameter (for Gram-Schmidt orthonormalisation) not specified.
  Using default value basis_acc =  0.1000000E-03.
  Species H                   : Using default innermost maximum threshold i_radial=  2 for radial functions.
  Species H                   : Basic radial grid will be enhanced according to radial_multiplier =   2, to contain    49 grid points.
 
  Reading configuration options for species O                   .
  | Found nuclear charge :   8.0000
  | Found atomic mass :    15.9994000000000      amu
  | Found l_max for Hartree potential  :   4
  | Found cutoff potl. onset [A], width [A], scale factor :    4.00000    2.00000    1.00000
  | Found cutoff specification for free atom: Cutoff potential begins at    8.00000 A.
  | Threshold for basis-dependent cutoff potential is   0.100000E-03
  | Found logarithmic grid data [bohr] : 0.1000E-03 0.1000E+03 0.1012E+01
  | Found data for basic radial integration grid :    36 points, outermost radius =    7.000 A
  | Found multiplier for basic radial grid :   2
  | Found angular grid specification: user-specified.
  | Specified grid contains     4 separate shells.
  | Check grid settings after all constraints further below.
  | Found free-atom valence shell :  2 s   2.000
  | Found free-atom valence shell :  2 p   4.000
  | No ionic wave fns used. Skipping ion_occ.
  | No ionic wave fns used. Skipping ion_occ.
  | Found hydrogenic basis function :  2 p   1.800
  | Found hydrogenic basis function :  3 d   7.600
  | Found hydrogenic basis function :  3 s   6.400
  | Found hydrogenic basis function :  4 f  11.600
  | Found hydrogenic basis function :  3 p   6.200
  | Found hydrogenic basis function :  3 d   5.600
  | Found hydrogenic basis function :  5 g  17.600
  | Found hydrogenic basis function :  1 s   0.750
  Species O                   : Missing cutoff potential type.
  Defaulting to exp(1/x)/(1-x)^2 type cutoff potential.
  Species O : On-site basis accuracy parameter (for Gram-Schmidt orthonormalisation) not specified.
  Using default value basis_acc =  0.1000000E-03.
  Species O                   : Using default innermost maximum threshold i_radial=  2 for radial functions.
  Species O                   : Basic radial grid will be enhanced according to radial_multiplier =   2, to contain    73 grid points.
 
  Finished reading input file 'control.in'. Consistency checks are next.
 
  Target number of points in a grid batch is not set. Defaulting to  100
  Method for grid partitioning is not set. Defaulting to parallel hash+maxmin partitioning.
  Batch size limit is not set. Defaulting to    200
  By default, will store active basis functions for each batch.
  If in need of memory, prune_basis_once .false. can be used to disable this option.
  communication_type for Hartree potential was not specified.
  Defaulting to calc_hartree .
  Pulay mixer: Number of initial linear mixing iterations not set.
  Defaulting to    0 iterations.
  Work space size for distributed Hartree potential not set.
  Defaulting to   0.200000E+03 MB.
  Algorithm-dependent basis array size parameters:
  | n_max_pulay                         :       10
  Geometry relaxation not requested: no relaxation will be performed.
  Handling of forces: Unphysical translation and rotation will be removed from forces.
  No accuracy limit for integral partition fn. given. Defaulting to 0.1000E-14.
  No threshold value for u(r) in integrations given. Defaulting to 0.1000E-05.
  No accuracy for occupation numbers given. Defaulting to 0.1000E-07.
  No threshold value for occupation numbers given. Defaulting to 0.0000E+00.
  No accuracy for fermi level given. Defaulting to 0.1000E-19.
  Maximum # of iterations to find E_F not set. Defaulting to  200.
  Will not use alltoall communication since running on < 1024 CPUs.
  Partitioning for Hartree potential was not defined. Using partition_type for integrals.
  | Reporting present value of keyword multip_moments_threshold  :       0.10000000E-09
  | This value may affect high angular momentum components of the Hartree potential in periodic systems.
  No q(lm)/r^(l+1) cutoff set for long-range Hartree potential.
  | Using default value of  0.100000E-09 .
  | Verify using the multipole_threshold keyword.
  Defaulting to new monopole extrapolation.
  Density update method: Loop over occupied states selected for charge density update.
------------------------------------------------------------


------------------------------------------------------------
          Reading geometry description geometry.in.
------------------------------------------------------------
  Input structure read successfully.
  The structure contains       16 atoms,  and a total of         51.000 electrons.

  Input geometry:
  | No unit cell requested.
  | Atomic structure:
  |       Atom                x [A]            y [A]            z [A]
  |    1: Species O             -4.053030         0.065001        -1.525160
  |    2: Species H             -4.566710         0.974813        -1.912820
  |    3: Species H             -3.067820         0.330172        -1.477310
  |    4: Species H             -4.370360        -0.049164        -0.572274
  |    5: Species O             -5.293160         2.192130        -2.328800
  |    6: Species H             -4.829300         2.988660        -1.973850
  |    7: Species H             -5.428570         2.328640        -3.235170
  |    8: Species O             -1.975360         2.858040         0.453140
  |    9: Species H             -1.223550         3.375850         0.786238
  |   10: Species H             -2.537520         2.567960         1.156120
  |   11: Species O             -4.066610         4.258280        -0.900064
  |   12: Species H             -3.224110         3.876870        -0.569443
  |   13: Species H             -3.737450         5.116530        -1.322720
  |   14: Species O             -5.628340         3.730740         1.385610
  |   15: Species H             -6.090650         4.418470         1.860350
  |   16: Species H             -5.158540         4.200260         0.615875
  |

  | The smallest distance between any two atoms is         0.92654057 AA.
  |
  | The first atom of this pair is atom number                      5 .
  | The second atom of this pair is atom number                     7 .

  Structure-dependent array size parameters: 
  | Maximum number of distinct radial functions  :       18
  | Maximum number of basis functions            :      360
  | Number of Kohn-Sham states (occupied + empty):       90
------------------------------------------------------------

------------------------------------------------------------
          Preparing all fixed parts of the calculation.
------------------------------------------------------------
  Determining machine precision:
    2.225073858507201E-308
  Setting up grids for atomic and cluster calculations.

  Creating wave function, potential, and density for free atoms.

  Species: H

  List of occupied orbitals and eigenvalues:
    n    l              occ      energy [Ha]    energy [eV]
    1    0           1.0000        -0.241408        -6.5691


  Species: O

  List of occupied orbitals and eigenvalues:
    n    l              occ      energy [Ha]    energy [eV]
    1    0           2.0000       -18.944147      -515.4965
    2    0           2.0000        -0.883529       -24.0421
    2    1           4.0000        -0.330176        -8.9845

  Creating fixed part of basis set: Ionic, confined, hydrogenic.
 
  H                    hydrogenic:
 
  List of hydrogenic basis orbitals: 
    n    l      effective z      eigenvalue [eV]  inner max. [A]     outer max. [A]     outer radius [A]   
    2    0         2.100000       -14.9965           0.193241           1.317192           5.372934
    2    1         3.500000       -41.6672           0.602363           0.602363           4.056010
    1    0         0.850000        -9.8292           0.624864           0.624864           5.372934
    2    1         3.700000       -46.5653           0.573616           0.573616           3.909951
    2    0         1.200000        -4.5995           0.334977           2.228160           5.505921
    3    2         7.000000       -74.0753           0.680692           0.680692           3.769152
 
 
  O                    hydrogenic:
 
  List of hydrogenic basis orbitals: 
    n    l      effective z      eigenvalue [eV]  inner max. [A]     outer max. [A]     outer radius [A]   
    2    1         1.800000       -11.0118           1.178546           1.178546           5.432516
    3    2         7.600000       -87.3182           0.624117           0.624117           3.541422
    3    0         6.400000       -61.9209           0.061166           1.081887           4.306510
    4    3        11.600000      -114.4238           0.731621           0.731621           3.584982
    3    1         6.200000       -58.1113           0.255677           1.030255           4.306510
    3    2         5.600000       -47.4081           0.847222           0.847222           4.413102
    5    4        17.600000      -168.5799           0.749730           0.749730           3.372413
    1    0         0.750000        -7.6499           0.705275           0.705275           5.366508
 

  Adding cutoff potential to free-atom effective potential.
  Creating atomic-like basis functions for current effective potential.

  Species H                   :

  List of atomic basis orbitals and eigenvalues:
    n    l      energy [Ha]    energy [eV]    outer radius [A]
    1    0        -0.241374        -6.5681       5.372934


  Species O                   :

  List of atomic basis orbitals and eigenvalues:
    n    l      energy [Ha]    energy [eV]    outer radius [A]
    1    0       -18.944147      -515.4965       1.415745
    2    0        -0.883529       -24.0421       5.048305
    2    1        -0.330173        -8.9845       5.301302

  Assembling full basis from fixed parts.
  | Species H :   atomic orbital   1 s accepted.
  | Species H :    hydro orbital   2 s accepted.
  | Species H :    hydro orbital   1 s accepted.
  | Species H :    hydro orbital   2 s accepted.
  | Species H :    hydro orbital   2 p accepted.
  | Species H :    hydro orbital   2 p accepted.
  | Species H :    hydro orbital   3 d accepted.
  | Species O :   atomic orbital   1 s accepted.
  | Species O :    hydro orbital   3 s accepted.
  | Species O :   atomic orbital   2 s accepted.
  | Species O :    hydro orbital   1 s accepted.
  | Species O :    hydro orbital   3 p accepted.
  | Species O :   atomic orbital   2 p accepted.
  | Species O :    hydro orbital   2 p accepted.
  | Species O :    hydro orbital   3 d accepted.
  | Species O :    hydro orbital   3 d accepted.
  | Species O :    hydro orbital   4 f accepted.
  | Species O :    hydro orbital   5 g accepted.
 
  Basis size parameters after reduction:
  | Total number of radial functions:       18
  | Total number of basis functions :      360
 
  Testing on-site integration grid accuracy.
  |  Species  Function  <phi|h_atom|phi> (log., in eV)  <phi|h_atom|phi> (rad., in eV)
           1        1                 -6.5683835025                 -6.5684759159
           1        2                 13.3711789951                 13.3708738703
           1        3                 23.6590910787                 23.6532055418
           1        4                 16.2963827186                 16.1870710655 ***
           1        5                 28.7627214838                 28.7627215090
           1        6                 59.5965249172                 59.5965950857
           1        7                 60.2220506392                 60.2220503827
           2        8               -515.4964576505               -515.4964530710
           2        9                 15.3030791347                 15.3030722972
           2       10                -21.7296094581                -21.7296135470
           2       11                 14.2969371730                 14.2969701621
           2       12                 21.0679693190                 21.0679697493
           2       13                 -2.3833606469                 -2.3833613176
           2       14                 13.7067136422                 13.7066766629
           2       15                 45.8013116808                 45.8013116965
           2       16                 52.2309815402                 52.2309831494
           2       17                 85.4120732416                 85.4120732763
           2       18                142.1019167745                142.1019167817
 * Note: Onsite integrals marked "***" above are less accurate than
 * onsite_accuracy_threshold =    0.03000 eV. Usually, this is harmless.
 * When in doubt, tighten the "radial" and/or "radial_multiplier" flags to check.

  Preparing densities etc. for the partition functions (integrals / Hartree potential).

  Preparations completed.
  max(cpu_time)          :      0.169 s.
  Wall clock time (cpu1) :      0.485 s.
------------------------------------------------------------

------------------------------------------------------------
          Begin self-consistency loop: Initialization.

          Date     :  20150727, Time     :  124955.410
------------------------------------------------------------

  Initializing index lists of integration centers etc. from given atomic structure:
  | Number of centers in hartree potential         :        16
  | Number of centers in hartree multipole         :        16
  | Number of centers in electron density summation:        16
  | Number of centers in basis integrals           :        16
  | Number of centers in integrals                 :        16
  Partitioning the integration grid into batches with parallel hashing+maxmin method.
  | Number of batches:     2243
  | Maximal batch size:     172
  | Minimal batch size:      50
  | Average batch size:      92.868
  | Standard deviation of batch sizes:      30.410

  Integration load balanced across     8 MPI tasks.
  Work distribution over tasks is as follows:
  Task     0 has      26077 integration points.
  Task     1 has      25979 integration points.
  Task     2 has      25998 integration points.
  Task     3 has      26050 integration points.
  Task     4 has      26083 integration points.
  Task     5 has      25989 integration points.
  Task     6 has      26112 integration points.
  Task     7 has      26016 integration points.
  Initializing partition tables, free-atom densities, potentials, etc. across the integration grid (initialize_grid_storage).
  | Net number of integration points:   208304
  | of which are non-zero points    :   207770
  Obtaining max. number of non-zero basis functions in each batch (get_n_compute_maxes).
  | Maximal number of non-zero basis functions:      357 in task     0
  | Maximal number of non-zero basis functions:      357 in task     1
  | Maximal number of non-zero basis functions:      357 in task     2
  | Maximal number of non-zero basis functions:      357 in task     3
  | Maximal number of non-zero basis functions:      357 in task     4
  | Maximal number of non-zero basis functions:      357 in task     5
  | Maximal number of non-zero basis functions:      357 in task     6
  | Maximal number of non-zero basis functions:      357 in task     7
  Integrating Hamiltonian matrix: batch-based integration.
  Time summed over all CPUs for integration: real work        8.496 s, elapsed        8.655 s
  Integrating overlap matrix.
  Time summed over all CPUs for integration: real work        4.568 s, elapsed        4.639 s

  Updating Kohn-Sham eigenvalues, eigenvectors, occupation numbers, and Fermi level.
  Solving generalized eigenproblem
  Updating Kohn-Sham eigenvalues and eigenfunctions.
  Transforming overlap matrix and checking for singularities.
  Overlap matrix is nonsingular:
  | Lowest eigenvalue:  0.296044E-03
  Solving real generalised eigenvalue problem by standard LAPACK (fast)
  Determining occupation numbers for Kohn-Sham eigenstates.
  | Chemical potential (Fermi level) in eV                 : -.27743713E+01
  | Error in electron count due to remaining E_F inaccuracy: 0.59259264E-11
  | Maximum occupation number of highest empty state:  0.00E+00

  Writing Kohn-Sham eigenvalues.

  State    Occupation    Eigenvalue [Ha]    Eigenvalue [eV]
      1       2.00000         -19.064972         -518.78428
      2       2.00000         -19.064887         -518.78198
      3       2.00000         -19.056661         -518.55812
      4       2.00000         -19.045452         -518.25311
      5       2.00000         -19.044635         -518.23087
      6       2.00000          -1.128007          -30.69465
      7       2.00000          -1.113134          -30.28992
      8       2.00000          -1.107560          -30.13825
      9       2.00000          -1.093307          -29.75040
     10       2.00000          -1.086013          -29.55191
     11       2.00000          -0.653980          -17.79571
     12       2.00000          -0.649197          -17.66555
     13       2.00000          -0.627502          -17.07519
     14       2.00000          -0.623647          -16.97029
     15       2.00000          -0.620499          -16.88463
     16       2.00000          -0.610133          -16.60256
     17       2.00000          -0.530865          -14.44557
     18       2.00000          -0.518171          -14.10016
     19       2.00000          -0.504717          -13.73404
     20       2.00000          -0.498551          -13.56627
     21       2.00000          -0.487171          -13.25660
     22       2.00000          -0.452890          -12.32375
     23       2.00000          -0.444337          -12.09102
     24       2.00000          -0.438088          -11.92098
     25       2.00000          -0.430144          -11.70482
     26       1.00000          -0.101956           -2.77437
     27       0.00000          -0.073048           -1.98773
     28       0.00000          -0.057750           -1.57147
     29       0.00000          -0.046333           -1.26079
     30       0.00000          -0.031136           -0.84725
     31       0.00000          -0.019988           -0.54390
     32       0.00000           0.004027            0.10958
     33       0.00000           0.025908            0.70498
     34       0.00000           0.037292            1.01476
     35       0.00000           0.044238            1.20376
     36       0.00000           0.053834            1.46490
     37       0.00000           0.068915            1.87527
     38       0.00000           0.075215            2.04671
     39       0.00000           0.087116            2.37054
     40       0.00000           0.088643            2.41210
     41       0.00000           0.096754            2.63282
     42       0.00000           0.099832            2.71656
     43       0.00000           0.108831            2.96143
     44       0.00000           0.110936            3.01872
     45       0.00000           0.113564            3.09022
     46       0.00000           0.129152            3.51441
     47       0.00000           0.139455            3.79477
     48       0.00000           0.141595            3.85299
     49       0.00000           0.155738            4.23785
     50       0.00000           0.162722            4.42789
     51       0.00000           0.172486            4.69357
     52       0.00000           0.178600            4.85996
     53       0.00000           0.224160            6.09971
     54       0.00000           0.227222            6.18303
     55       0.00000           0.232511            6.32695
     56       0.00000           0.243670            6.63061
     57       0.00000           0.252770            6.87822
     58       0.00000           0.262423            7.14089
     59       0.00000           0.284202            7.73354
     60       0.00000           0.300461            8.17595
     61       0.00000           0.310305            8.44383
     62       0.00000           0.327835            8.92083
     63       0.00000           0.345647            9.40554
     64       0.00000           0.346085            9.41744
     65       0.00000           0.363440            9.88970
     66       0.00000           0.374735           10.19705
     67       0.00000           0.378060           10.28755
     68       0.00000           0.390463           10.62503
     69       0.00000           0.396885           10.79980
     70       0.00000           0.420953           11.45471
     71       0.00000           0.436406           11.87521
     72       0.00000           0.445475           12.12198
     73       0.00000           0.446397           12.14708
     74       0.00000           0.460195           12.52255
     75       0.00000           0.473971           12.89741
     76       0.00000           0.488449           13.29137
     77       0.00000           0.497510           13.53793
     78       0.00000           0.508646           13.84097
     79       0.00000           0.527525           14.35470
     80       0.00000           0.550161           14.97065
     81       0.00000           0.581309           15.81823
     82       0.00000           0.592248           16.11589
     83       0.00000           0.622407           16.93655
     84       0.00000           0.645390           17.56195
     85       0.00000           0.681674           18.54928
     86       0.00000           0.689528           18.76300
     87       0.00000           0.699311           19.02921
     88       0.00000           0.743334           20.22714
     89       0.00000           0.748878           20.37800
     90       0.00000           0.785315           21.36952

  Highest occupied state (VBM) at     -2.77437133 eV
  | Occupation number:      1.00000000

  Lowest unoccupied state (CBM) at    -1.98773400 eV
  | Occupation number:      0.00000000

  Overall HOMO-LUMO gap:      0.78663733 eV.
  Calculating total energy contributions from superposition of free atom densities.

  Total energy components:
  | Sum of eigenvalues            :        -217.89099498 Ha       -5929.11564347 eV
  | XC energy correction          :         -45.95478859 Ha       -1250.49342198 eV
  | XC potential correction       :          58.73334206 Ha        1598.21555389 eV
  | Free-atom electrostatic energy:        -178.43296283 Ha       -4855.40795903 eV
  | Hartree energy correction     :           0.00000000 Ha           0.00000000 eV
  | van der Waals energy corr.    :           0.00000000 Ha           0.00000000 eV
  | Entropy correction            :          -0.00010367 Ha          -0.00282095 eV
  | ---------------------------
  | Total energy                  :        -383.54540434 Ha      -10436.80147059 eV
  | Total energy, T -> 0          :        -383.54550800 Ha      -10436.80429154 eV  <-- do not rely on this value for anything but (periodic) metals
  | Electronic free energy        :        -383.54561167 Ha      -10436.80711249 eV

  Derived energy quantities:
  | Kinetic energy                :         379.87264033 Ha       10336.86047694 eV
  | Electrostatic energy          :        -717.46325607 Ha      -19523.16852555 eV
  | Energy correction for multipole
  | error in Hartree potential    :           0.00000000 Ha           0.00000000 eV
  | Sum of eigenvalues per atom                           :        -370.56972772 eV
  | Total energy (T->0) per atom                          :        -652.30026822 eV  <-- do not rely on this value for anything but (periodic) metals
  | Electronic free energy per atom                       :        -652.30044453 eV
  Initialize hartree_potential_storage
  Max. number of atoms included in rho_multipole:           16

  End scf initialization - timings             :  max(cpu_time)    wall_clock(cpu1)
  | Time for scf. initialization               :        2.280 s           2.279 s
  | Boundary condition initialization          :        0.000 s           0.000 s
  | Integration                                :        1.665 s           1.665 s
  | Solution of K.-S. eqns.                    :        0.213 s           0.213 s
  | Grid partitioning                          :        0.160 s           0.161 s
  | Preloading free-atom quantities on grid    :        0.013 s           0.014 s
  | Free-atom superposition energy             :        0.074 s           0.073 s
  | Total energy evaluation                    :        0.000 s           0.001 s
------------------------------------------------------------

------------------------------------------------------------
          Begin self-consistency iteration #    1

  Date     :  20150727, Time     :  124957.689
------------------------------------------------------------
  Evaluating new KS density.
  Integration grid: deviation in total charge (<rho> - N_e) =   5.933032E-12
  Pulay mixing of updated and previous charge densities.

  Evaluating partitioned Hartree potential by multipole expansion.
  | Analytical far-field extrapolation by fixed multipoles:
  | Hartree multipole sum: apparent total charge =  -0.980161E-06
  Summing up the Hartree potential.
  Time summed over all CPUs for potential: real work        2.897 s, elapsed        2.903 s
  | RMS charge density error from multipole expansion :   0.169801E-02

  Integrating Hamiltonian matrix: batch-based integration.
  Time summed over all CPUs for integration: real work        8.480 s, elapsed        8.616 s

  Updating Kohn-Sham eigenvalues, eigenvectors, occupation numbers, and Fermi level.
  Solving generalized eigenproblem
  Updating Kohn-Sham eigenvalues and eigenfunctions.
  Solving real generalised eigenvalue problem by standard LAPACK (fast)
  Determining occupation numbers for Kohn-Sham eigenstates.
  | Chemical potential (Fermi level) in eV                 : -.25735752E+01
  | Error in electron count due to remaining E_F inaccuracy: -.42632564E-13
  | Maximum occupation number of highest empty state:  0.00E+00

  Writing Kohn-Sham eigenvalues.

  State    Occupation    Eigenvalue [Ha]    Eigenvalue [eV]
      1       2.00000         -19.016828         -517.47421
      2       2.00000         -18.993673         -516.84415
      3       2.00000         -18.978171         -516.42231
      4       2.00000         -18.974064         -516.31056
      5       2.00000         -18.958956         -515.89945
      6       2.00000          -1.102583          -30.00281
      7       2.00000          -1.083125          -29.47332
      8       2.00000          -1.068905          -29.08638
      9       2.00000          -1.054870          -28.70448
     10       2.00000          -1.042950          -28.38012
     11       2.00000          -0.623917          -16.97764
     12       2.00000          -0.615559          -16.75021
     13       2.00000          -0.610266          -16.60618
     14       2.00000          -0.600217          -16.33274
     15       2.00000          -0.586230          -15.95213
     16       2.00000          -0.576925          -15.69893
     17       2.00000          -0.499892          -13.60276
     18       2.00000          -0.483232          -13.14941
     19       2.00000          -0.465630          -12.67043
     20       2.00000          -0.462015          -12.57208
     21       2.00000          -0.454911          -12.37876
     22       2.00000          -0.418602          -11.39073
     23       2.00000          -0.404932          -11.01875
     24       2.00000          -0.399458          -10.86982
     25       2.00000          -0.383536          -10.43654
     26       1.00000          -0.094577           -2.57358
     27       0.00000          -0.065653           -1.78650
     28       0.00000          -0.050038           -1.36161
     29       0.00000          -0.037166           -1.01135
     30       0.00000          -0.024543           -0.66785
     31       0.00000          -0.015029           -0.40897
     32       0.00000           0.011778            0.32049
     33       0.00000           0.036617            0.99640
     34       0.00000           0.047562            1.29424
     35       0.00000           0.050097            1.36321
     36       0.00000           0.063435            1.72616
     37       0.00000           0.075796            2.06251
     38       0.00000           0.082410            2.24248
     39       0.00000           0.092513            2.51741
     40       0.00000           0.096230            2.61856
     41       0.00000           0.108055            2.94032
     42       0.00000           0.111489            3.03376
     43       0.00000           0.117246            3.19044
     44       0.00000           0.121912            3.31739
     45       0.00000           0.126113            3.43171
     46       0.00000           0.136012            3.70108
     47       0.00000           0.147557            4.01523
     48       0.00000           0.151171            4.11358
     49       0.00000           0.163776            4.45657
     50       0.00000           0.170793            4.64751
     51       0.00000           0.182130            4.95602
     52       0.00000           0.187902            5.11306
     53       0.00000           0.229795            6.25305
     54       0.00000           0.234093            6.36999
     55       0.00000           0.239104            6.50635
     56       0.00000           0.251461            6.84261
     57       0.00000           0.259593            7.06389
     58       0.00000           0.272975            7.42803
     59       0.00000           0.289533            7.87859
     60       0.00000           0.307892            8.37817
     61       0.00000           0.317511            8.63990
     62       0.00000           0.333326            9.07026
     63       0.00000           0.353619            9.62246
     64       0.00000           0.354825            9.65529
     65       0.00000           0.372382           10.13302
     66       0.00000           0.381142           10.37141
     67       0.00000           0.385795           10.49802
     68       0.00000           0.395534           10.76302
     69       0.00000           0.406757           11.06842
     70       0.00000           0.428808           11.66845
     71       0.00000           0.446174           12.14102
     72       0.00000           0.454573           12.36955
     73       0.00000           0.454900           12.37847
     74       0.00000           0.469735           12.78215
     75       0.00000           0.483382           13.15349
     76       0.00000           0.495018           13.47012
     77       0.00000           0.509027           13.85132
     78       0.00000           0.520573           14.16551
     79       0.00000           0.538695           14.65863
     80       0.00000           0.563674           15.33835
     81       0.00000           0.589874           16.05128
     82       0.00000           0.602702           16.40034
     83       0.00000           0.634647           17.26963
     84       0.00000           0.657945           17.90360
     85       0.00000           0.691022           18.80367
     86       0.00000           0.699837           19.04352
     87       0.00000           0.711222           19.35333
     88       0.00000           0.752825           20.48541
     89       0.00000           0.758756           20.64679
     90       0.00000           0.794976           21.63239

  Highest occupied state (VBM) at    -10.43654378 eV
  | Occupation number:      2.00000000

  Lowest unoccupied state (CBM) at    -2.57357516 eV
  | Occupation number:      1.00000000

  Overall HOMO-LUMO gap:      7.86296862 eV.

  Total energy components:
  | Sum of eigenvalues            :        -215.81347268 Ha       -5872.58338526 eV
  | XC energy correction          :         -46.17792459 Ha       -1256.56526130 eV
  | XC potential correction       :          59.02465363 Ha        1606.14254504 eV
  | Free-atom electrostatic energy:        -178.43296283 Ha       -4855.40795903 eV
  | Hartree energy correction     :          -2.02222222 Ha         -55.02746632 eV
  | van der Waals energy corr.    :           0.00000000 Ha           0.00000000 eV
  | Entropy correction            :          -0.00010367 Ha          -0.00282095 eV
  | ---------------------------
  | Total energy                  :        -383.42192867 Ha      -10433.44152687 eV
  | Total energy, T -> 0          :        -383.42203234 Ha      -10433.44434782 eV  <-- do not rely on this value for anything but (periodic) metals
  | Electronic free energy        :        -383.42213601 Ha      -10433.44716877 eV

  Derived energy quantities:
  | Kinetic energy                :         381.23864398 Ha       10374.03132772 eV
  | Electrostatic energy          :        -718.48264807 Ha      -19550.90759330 eV
  | Energy correction for multipole
  | error in Hartree potential    :           0.00043159 Ha           0.01174405 eV
  | Sum of eigenvalues per atom                           :        -367.03646158 eV
  | Total energy (T->0) per atom                          :        -652.09027174 eV  <-- do not rely on this value for anything but (periodic) metals
  | Electronic free energy per atom                       :        -652.09044805 eV

  Self-consistency convergence accuracy:
  | Change of charge density      : 0.6415E+00
  | Change of sum of eigenvalues  : 0.5653E+02 eV
  | Change of total energy        : 0.3360E+01 eV

  End self-consistency iteration #     1       :  max(cpu_time)    wall_clock(cpu1)
  | Time for this iteration                    :        2.203 s           2.203 s
  | Charge density update                      :        0.694 s           0.694 s
  | Density mixing                             :        0.004 s           0.004 s
  | Hartree multipole update                   :        0.005 s           0.005 s
  | Hartree multipole summation                :        0.363 s           0.364 s
  | Integration                                :        1.078 s           1.078 s
  | Solution of K.-S. eqns.                    :        0.057 s           0.057 s
  | Total energy evaluation                    :        0.000 s           0.000 s
------------------------------------------------------------

------------------------------------------------------------
          Begin self-consistency iteration #    2

  Date     :  20150727, Time     :  124959.892
------------------------------------------------------------
  Evaluating new KS density.
  Integration grid: deviation in total charge (<rho> - N_e) =  -1.421085E-14
  Pulay mixing of updated and previous charge densities.

  Evaluating partitioned Hartree potential by multipole expansion.
  | Analytical far-field extrapolation by fixed multipoles:
  | Hartree multipole sum: apparent total charge =  -0.334266E-05
  Summing up the Hartree potential.
  Time summed over all CPUs for potential: real work        2.896 s, elapsed        2.901 s
  | RMS charge density error from multipole expansion :   0.692768E-02

  Integrating Hamiltonian matrix: batch-based integration.
  Time summed over all CPUs for integration: real work        8.506 s, elapsed        8.660 s

  Updating Kohn-Sham eigenvalues, eigenvectors, occupation numbers, and Fermi level.
  Solving generalized eigenproblem
  Updating Kohn-Sham eigenvalues and eigenfunctions.
  Solving real generalised eigenvalue problem by standard LAPACK (fast)
  Determining occupation numbers for Kohn-Sham eigenstates.
  | Chemical potential (Fermi level) in eV                 : -.21135884E+01
  | Error in electron count due to remaining E_F inaccuracy: -.94111385E-09
  | Maximum occupation number of highest empty state:  0.00E+00

  Highest occupied state (VBM) at     -7.37074638 eV
  | Occupation number:      2.00000000

  Lowest unoccupied state (CBM) at    -2.11358842 eV
  | Occupation number:      1.00000000

  Overall HOMO-LUMO gap:      5.25715795 eV.

  Total energy components:
  | Sum of eigenvalues            :        -210.79779976 Ha       -5736.09998107 eV
  | XC energy correction          :         -46.74522244 Ha       -1272.00222132 eV
  | XC potential correction       :          59.76365026 Ha        1626.25166639 eV
  | Free-atom electrostatic energy:        -178.43296283 Ha       -4855.40795903 eV
  | Hartree energy correction     :          -7.06897293 Ha        -192.35654032 eV
  | van der Waals energy corr.    :           0.00000000 Ha           0.00000000 eV
  | Entropy correction            :          -0.00010367 Ha          -0.00282095 eV
  | ---------------------------
  | Total energy                  :        -383.28130769 Ha      -10429.61503535 eV
  | Total energy, T -> 0          :        -383.28141136 Ha      -10429.61785630 eV  <-- do not rely on this value for anything but (periodic) metals
  | Electronic free energy        :        -383.28151503 Ha      -10429.62067725 eV

  Derived energy quantities:
  | Kinetic energy                :         384.10936362 Ha       10452.14758345 eV
  | Electrostatic energy          :        -720.64544887 Ha      -19609.76039749 eV
  | Energy correction for multipole
  | error in Hartree potential    :           0.00091158 Ha           0.02480545 eV
  | Sum of eigenvalues per atom                           :        -358.50624882 eV
  | Total energy (T->0) per atom                          :        -651.85111602 eV  <-- do not rely on this value for anything but (periodic) metals
  | Electronic free energy per atom                       :        -651.85129233 eV

  Self-consistency convergence accuracy:
  | Change of charge density      : 0.4878E+00
  | Change of sum of eigenvalues  : 0.1365E+03 eV
  | Change of total energy        : 0.3826E+01 eV

  End self-consistency iteration #     2       :  max(cpu_time)    wall_clock(cpu1)
  | Time for this iteration                    :        2.209 s           2.208 s
  | Charge density update                      :        0.691 s           0.691 s
  | Density mixing                             :        0.006 s           0.006 s
  | Hartree multipole update                   :        0.005 s           0.005 s
  | Hartree multipole summation                :        0.363 s           0.363 s
  | Integration                                :        1.085 s           1.084 s
  | Solution of K.-S. eqns.                    :        0.057 s           0.059 s
  | Total energy evaluation                    :        0.000 s           0.000 s
------------------------------------------------------------

------------------------------------------------------------
          Begin self-consistency iteration #    3

  Date     :  20150727, Time     :  125002.101
------------------------------------------------------------
  Evaluating new KS density.
  Integration grid: deviation in total charge (<rho> - N_e) =  -9.410996E-10
  Pulay mixing of updated and previous charge densities.

  Evaluating partitioned Hartree potential by multipole expansion.
  | Analytical far-field extrapolation by fixed multipoles:
  | Hartree multipole sum: apparent total charge =  -0.314698E-05
  Summing up the Hartree potential.
  Time summed over all CPUs for potential: real work        2.896 s, elapsed        2.902 s
  | RMS charge density error from multipole expansion :   0.134720E-01

  Integrating Hamiltonian matrix: batch-based integration.
  Time summed over all CPUs for integration: real work        8.467 s, elapsed        8.621 s

  Updating Kohn-Sham eigenvalues, eigenvectors, occupation numbers, and Fermi level.
  Solving generalized eigenproblem
  Updating Kohn-Sham eigenvalues and eigenfunctions.
  Solving real generalised eigenvalue problem by standard LAPACK (fast)
  Determining occupation numbers for Kohn-Sham eigenstates.
  | Chemical potential (Fermi level) in eV                 : -.20271851E+01
  | Error in electron count due to remaining E_F inaccuracy: 0.26432190E-11
  | Maximum occupation number of highest empty state:  0.00E+00

  Highest occupied state (VBM) at     -2.02718512 eV
  | Occupation number:      1.00000000

  Lowest unoccupied state (CBM) at    -1.26948876 eV
  | Occupation number:      0.00000000

  Overall HOMO-LUMO gap:      0.75769637 eV.

  Total energy components:
  | Sum of eigenvalues            :        -211.00049693 Ha       -5741.61565169 eV
  | XC energy correction          :         -46.74718731 Ha       -1272.05568830 eV
  | XC potential correction       :          59.75840874 Ha        1626.10903722 eV
  | Free-atom electrostatic energy:        -178.43296283 Ha       -4855.40795903 eV
  | Hartree energy correction     :          -6.85641048 Ha        -186.57242190 eV
  | van der Waals energy corr.    :           0.00000000 Ha           0.00000000 eV
  | Entropy correction            :          -0.00010367 Ha          -0.00282095 eV
  | ---------------------------
  | Total energy                  :        -383.27864882 Ha      -10429.54268371 eV
  | Total energy, T -> 0          :        -383.27875249 Ha      -10429.54550465 eV  <-- do not rely on this value for anything but (periodic) metals
  | Electronic free energy        :        -383.27885616 Ha      -10429.54832560 eV

  Derived energy quantities:
  | Kinetic energy                :         382.51435179 Ha       10408.74510330 eV
  | Electrostatic energy          :        -719.04581330 Ha      -19566.23209871 eV
  | Energy correction for multipole
  | error in Hartree potential    :          -0.00218918 Ha          -0.05957049 eV
  | Sum of eigenvalues per atom                           :        -358.85097823 eV
  | Total energy (T->0) per atom                          :        -651.84659404 eV  <-- do not rely on this value for anything but (periodic) metals
  | Electronic free energy per atom                       :        -651.84677035 eV

  Self-consistency convergence accuracy:
  | Change of charge density      : 0.2357E+00
  | Change of sum of eigenvalues  : -.5516E+01 eV
  | Change of total energy        : 0.7235E-01 eV

  End self-consistency iteration #     3       :  max(cpu_time)    wall_clock(cpu1)
  | Time for this iteration                    :        2.200 s           2.200 s
  | Charge density update                      :        0.687 s           0.688 s
  | Density mixing                             :        0.008 s           0.007 s
  | Hartree multipole update                   :        0.005 s           0.005 s
  | Hartree multipole summation                :        0.363 s           0.364 s
  | Integration                                :        1.080 s           1.079 s
  | Solution of K.-S. eqns.                    :        0.056 s           0.057 s
  | Total energy evaluation                    :        0.000 s           0.000 s
------------------------------------------------------------

------------------------------------------------------------
          Begin self-consistency iteration #    4

  Date     :  20150727, Time     :  125004.301
------------------------------------------------------------
  Evaluating new KS density.
  Integration grid: deviation in total charge (<rho> - N_e) =   2.629008E-12
  Pulay mixing of updated and previous charge densities.

  Evaluating partitioned Hartree potential by multipole expansion.
  | Analytical far-field extrapolation by fixed multipoles:
  | Hartree multipole sum: apparent total charge =  -0.343119E-05
  Summing up the Hartree potential.
  Time summed over all CPUs for potential: real work        2.895 s, elapsed        2.901 s
  | RMS charge density error from multipole expansion :   0.181683E-01

  Integrating Hamiltonian matrix: batch-based integration.
  Time summed over all CPUs for integration: real work        8.454 s, elapsed        8.603 s

  Updating Kohn-Sham eigenvalues, eigenvectors, occupation numbers, and Fermi level.
  Solving generalized eigenproblem
  Updating Kohn-Sham eigenvalues and eigenfunctions.
  Solving real generalised eigenvalue problem by standard LAPACK (fast)
  Determining occupation numbers for Kohn-Sham eigenstates.
  | Chemical potential (Fermi level) in eV                 : -.19083184E+01
  | Error in electron count due to remaining E_F inaccuracy: 0.89528385E-12
  | Maximum occupation number of highest empty state:  0.00E+00

  Highest occupied state (VBM) at     -1.90831835 eV
  | Occupation number:      1.00000000

  Lowest unoccupied state (CBM) at    -1.15581332 eV
  | Occupation number:      0.00000000

  Overall HOMO-LUMO gap:      0.75250503 eV.

  Total energy components:
  | Sum of eigenvalues            :        -209.80102242 Ha       -5708.97628950 eV
  | XC energy correction          :         -46.91527381 Ha       -1276.62955451 eV
  | XC potential correction       :          59.97388011 Ha        1631.97231157 eV
  | Free-atom electrostatic energy:        -178.43296283 Ha       -4855.40795903 eV
  | Hartree energy correction     :          -8.09876840 Ha        -220.37870096 eV
  | van der Waals energy corr.    :           0.00000000 Ha           0.00000000 eV
  | Entropy correction            :          -0.00010367 Ha          -0.00282095 eV
  | ---------------------------
  | Total energy                  :        -383.27414735 Ha      -10429.42019244 eV
  | Total energy, T -> 0          :        -383.27425102 Ha      -10429.42301339 eV  <-- do not rely on this value for anything but (periodic) metals
  | Electronic free energy        :        -383.27435469 Ha      -10429.42583434 eV

  Derived energy quantities:
  | Kinetic energy                :         382.44007833 Ha       10406.72401958 eV
  | Electrostatic energy          :        -718.79895187 Ha      -19559.51465751 eV
  | Energy correction for multipole
  | error in Hartree potential    :          -0.00374941 Ha          -0.10202653 eV
  | Sum of eigenvalues per atom                           :        -356.81101809 eV
  | Total energy (T->0) per atom                          :        -651.83893834 eV  <-- do not rely on this value for anything but (periodic) metals
  | Electronic free energy per atom                       :        -651.83911465 eV

  Self-consistency convergence accuracy:
  | Change of charge density      : 0.1085E+00
  | Change of sum of eigenvalues  : 0.3264E+02 eV
  | Change of total energy        : 0.1225E+00 eV

  End self-consistency iteration #     4       :  max(cpu_time)    wall_clock(cpu1)
  | Time for this iteration                    :        2.197 s           2.197 s
  | Charge density update                      :        0.685 s           0.685 s
  | Density mixing                             :        0.009 s           0.009 s
  | Hartree multipole update                   :        0.005 s           0.005 s
  | Hartree multipole summation                :        0.363 s           0.363 s
  | Integration                                :        1.077 s           1.077 s
  | Solution of K.-S. eqns.                    :        0.057 s           0.057 s
  | Total energy evaluation                    :        0.000 s           0.000 s
------------------------------------------------------------

------------------------------------------------------------
          Begin self-consistency iteration #    5

  Date     :  20150727, Time     :  125006.498
------------------------------------------------------------
  Evaluating new KS density.
  Integration grid: deviation in total charge (<rho> - N_e) =   9.166001E-13
  Pulay mixing of updated and previous charge densities.

  Evaluating partitioned Hartree potential by multipole expansion.
  | Analytical far-field extrapolation by fixed multipoles:
  | Hartree multipole sum: apparent total charge =  -0.343143E-05
  Summing up the Hartree potential.
  Time summed over all CPUs for potential: real work        2.895 s, elapsed        2.901 s
  | RMS charge density error from multipole expansion :   0.180767E-01

  Integrating Hamiltonian matrix: batch-based integration.
  Time summed over all CPUs for integration: real work        8.457 s, elapsed        8.615 s

  Updating Kohn-Sham eigenvalues, eigenvectors, occupation numbers, and Fermi level.
  Solving generalized eigenproblem
  Updating Kohn-Sham eigenvalues and eigenfunctions.
  Solving real generalised eigenvalue problem by standard LAPACK (fast)
  Determining occupation numbers for Kohn-Sham eigenstates.
  | Chemical potential (Fermi level) in eV                 : -.19580441E+01
  | Error in electron count due to remaining E_F inaccuracy: 0.46941153E-08
  | Maximum occupation number of highest empty state:  0.00E+00

  Highest occupied state (VBM) at     -1.95804409 eV
  | Occupation number:      1.00000000

  Lowest unoccupied state (CBM) at    -1.16794276 eV
  | Occupation number:      0.00000000

  Overall HOMO-LUMO gap:      0.79010134 eV.

  Total energy components:
  | Sum of eigenvalues            :        -209.95597353 Ha       -5713.19272367 eV
  | XC energy correction          :         -46.89705530 Ha       -1276.13380370 eV
  | XC potential correction       :          59.94976740 Ha        1631.31617153 eV
  | Free-atom electrostatic energy:        -178.43296283 Ha       -4855.40795903 eV
  | Hartree energy correction     :          -7.93758907 Ha        -215.99278820 eV
  | van der Waals energy corr.    :           0.00000000 Ha           0.00000000 eV
  | Entropy correction            :          -0.00010367 Ha          -0.00282095 eV
  | ---------------------------
  | Total energy                  :        -383.27381332 Ha      -10429.41110308 eV
  | Total energy, T -> 0          :        -383.27391699 Ha      -10429.41392402 eV  <-- do not rely on this value for anything but (periodic) metals
  | Electronic free energy        :        -383.27402066 Ha      -10429.41674497 eV

  Derived energy quantities:
  | Kinetic energy                :         382.41005039 Ha       10405.90691794 eV
  | Electrostatic energy          :        -718.78680842 Ha      -19559.18421732 eV
  | Energy correction for multipole
  | error in Hartree potential    :          -0.00388147 Ha          -0.10562014 eV
  | Sum of eigenvalues per atom                           :        -357.07454523 eV
  | Total energy (T->0) per atom                          :        -651.83837025 eV  <-- do not rely on this value for anything but (periodic) metals
  | Electronic free energy per atom                       :        -651.83854656 eV

  Self-consistency convergence accuracy:
  | Change of charge density      : 0.2286E-01
  | Change of sum of eigenvalues  : -.4216E+01 eV
  | Change of total energy        : 0.9089E-02 eV

  End self-consistency iteration #     5       :  max(cpu_time)    wall_clock(cpu1)
  | Time for this iteration                    :        2.202 s           2.201 s
  | Charge density update                      :        0.686 s           0.686 s
  | Density mixing                             :        0.010 s           0.010 s
  | Hartree multipole update                   :        0.005 s           0.005 s
  | Hartree multipole summation                :        0.364 s           0.364 s
  | Integration                                :        1.078 s           1.078 s
  | Solution of K.-S. eqns.                    :        0.057 s           0.058 s
  | Total energy evaluation                    :        0.000 s           0.000 s
------------------------------------------------------------

------------------------------------------------------------
          Begin self-consistency iteration #    6

  Date     :  20150727, Time     :  125008.699
------------------------------------------------------------
  Evaluating new KS density.
  Integration grid: deviation in total charge (<rho> - N_e) =   4.694137E-09
  Pulay mixing of updated and previous charge densities.

  Evaluating partitioned Hartree potential by multipole expansion.
  | Analytical far-field extrapolation by fixed multipoles:
  | Hartree multipole sum: apparent total charge =  -0.337209E-05
  Summing up the Hartree potential.
  Time summed over all CPUs for potential: real work        2.895 s, elapsed        2.902 s
  | RMS charge density error from multipole expansion :   0.183197E-01

  Integrating Hamiltonian matrix: batch-based integration.
  Time summed over all CPUs for integration: real work        8.457 s, elapsed        8.617 s

  Updating Kohn-Sham eigenvalues, eigenvectors, occupation numbers, and Fermi level.
  Solving generalized eigenproblem
  Updating Kohn-Sham eigenvalues and eigenfunctions.
  Solving real generalised eigenvalue problem by standard LAPACK (fast)
  Determining occupation numbers for Kohn-Sham eigenstates.
  | Chemical potential (Fermi level) in eV                 : -.19598969E+01
  | Error in electron count due to remaining E_F inaccuracy: 0.73985973E-09
  | Maximum occupation number of highest empty state:  0.00E+00

  Highest occupied state (VBM) at     -1.95989692 eV
  | Occupation number:      1.00000000

  Lowest unoccupied state (CBM) at    -1.17174943 eV
  | Occupation number:      0.00000000

  Overall HOMO-LUMO gap:      0.78814749 eV.

  Total energy components:
  | Sum of eigenvalues            :        -209.95888241 Ha       -5713.27187832 eV
  | XC energy correction          :         -46.89890639 Ha       -1276.18417453 eV
  | XC potential correction       :          59.95185975 Ha        1631.37310704 eV
  | Free-atom electrostatic energy:        -178.43296283 Ha       -4855.40795903 eV
  | Hartree energy correction     :          -7.93493868 Ha        -215.92066732 eV
  | van der Waals energy corr.    :           0.00000000 Ha           0.00000000 eV
  | Entropy correction            :          -0.00010367 Ha          -0.00282095 eV
  | ---------------------------
  | Total energy                  :        -383.27383056 Ha      -10429.41157217 eV
  | Total energy, T -> 0          :        -383.27393423 Ha      -10429.41439312 eV  <-- do not rely on this value for anything but (periodic) metals
  | Electronic free energy        :        -383.27403790 Ha      -10429.41721407 eV

  Derived energy quantities:
  | Kinetic energy                :         382.39918284 Ha       10405.61119683 eV
  | Electrostatic energy          :        -718.77410701 Ha      -19558.83859447 eV
  | Energy correction for multipole
  | error in Hartree potential    :          -0.00403270 Ha          -0.10973542 eV
  | Sum of eigenvalues per atom                           :        -357.07949240 eV
  | Total energy (T->0) per atom                          :        -651.83839957 eV  <-- do not rely on this value for anything but (periodic) metals
  | Electronic free energy per atom                       :        -651.83857588 eV

  Self-consistency convergence accuracy:
  | Change of charge density      : 0.9046E-02
  | Change of sum of eigenvalues  : -.7915E-01 eV
  | Change of total energy        : -.4691E-03 eV

  End self-consistency iteration #     6       :  max(cpu_time)    wall_clock(cpu1)
  | Time for this iteration                    :        2.202 s           2.203 s
  | Charge density update                      :        0.686 s           0.686 s
  | Density mixing                             :        0.011 s           0.012 s
  | Hartree multipole update                   :        0.005 s           0.005 s
  | Hartree multipole summation                :        0.364 s           0.363 s
  | Integration                                :        1.079 s           1.079 s
  | Solution of K.-S. eqns.                    :        0.057 s           0.057 s
  | Total energy evaluation                    :        0.000 s           0.000 s
------------------------------------------------------------

------------------------------------------------------------
          Begin self-consistency iteration #    7

  Date     :  20150727, Time     :  125010.902
------------------------------------------------------------
  Evaluating new KS density.
  Integration grid: deviation in total charge (<rho> - N_e) =   7.399166E-10
  Pulay mixing of updated and previous charge densities.

  Evaluating partitioned Hartree potential by multipole expansion.
  | Analytical far-field extrapolation by fixed multipoles:
  | Hartree multipole sum: apparent total charge =  -0.332754E-05
  Summing up the Hartree potential.
  Time summed over all CPUs for potential: real work        2.895 s, elapsed        2.901 s
  | RMS charge density error from multipole expansion :   0.184473E-01

  Integrating Hamiltonian matrix: batch-based integration.
  Time summed over all CPUs for integration: real work        8.455 s, elapsed        8.615 s

  Updating Kohn-Sham eigenvalues, eigenvectors, occupation numbers, and Fermi level.
  Solving generalized eigenproblem
  Updating Kohn-Sham eigenvalues and eigenfunctions.
  Solving real generalised eigenvalue problem by standard LAPACK (fast)
  Determining occupation numbers for Kohn-Sham eigenstates.
  | Chemical potential (Fermi level) in eV                 : -.19627927E+01
  | Error in electron count due to remaining E_F inaccuracy: 0.00000000E+00
  | Maximum occupation number of highest empty state:  0.00E+00

  Highest occupied state (VBM) at     -1.96279273 eV
  | Occupation number:      1.00000000

  Lowest unoccupied state (CBM) at    -1.96279273 eV
  | Occupation number:      1.00000000

  Overall HOMO-LUMO gap:      0.00000000 eV.

  Total energy components:
  | Sum of eigenvalues            :        -209.99131346 Ha       -5714.15437214 eV
  | XC energy correction          :         -46.89704009 Ha       -1276.13338983 eV
  | XC potential correction       :          59.94912558 Ha        1631.29870654 eV
  | Free-atom electrostatic energy:        -178.43296283 Ha       -4855.40795903 eV
  | Hartree energy correction     :          -7.90163098 Ha        -215.01431884 eV
  | van der Waals energy corr.    :           0.00000000 Ha           0.00000000 eV
  | Entropy correction            :          -0.00010367 Ha          -0.00282095 eV
  | ---------------------------
  | Total energy                  :        -383.27382178 Ha      -10429.41133329 eV
  | Total energy, T -> 0          :        -383.27392545 Ha      -10429.41415424 eV  <-- do not rely on this value for anything but (periodic) metals
  | Electronic free energy        :        -383.27402912 Ha      -10429.41697519 eV

  Derived energy quantities:
  | Kinetic energy                :         382.43458159 Ha       10406.57444569 eV
  | Electrostatic energy          :        -718.81136328 Ha      -19559.85238915 eV
  | Energy correction for multipole
  | error in Hartree potential    :          -0.00417449 Ha          -0.11359358 eV
  | Sum of eigenvalues per atom                           :        -357.13464826 eV
  | Total energy (T->0) per atom                          :        -651.83838464 eV  <-- do not rely on this value for anything but (periodic) metals
  | Electronic free energy per atom                       :        -651.83856095 eV

  Self-consistency convergence accuracy:
  | Change of charge density      : 0.6495E-02
  | Change of sum of eigenvalues  : -.8825E+00 eV
  | Change of total energy        : 0.2389E-03 eV

  End self-consistency iteration #     7       :  max(cpu_time)    wall_clock(cpu1)
  | Time for this iteration                    :        2.205 s           2.204 s
  | Charge density update                      :        0.687 s           0.686 s
  | Density mixing                             :        0.013 s           0.013 s
  | Hartree multipole update                   :        0.005 s           0.004 s
  | Hartree multipole summation                :        0.364 s           0.364 s
  | Integration                                :        1.078 s           1.078 s
  | Solution of K.-S. eqns.                    :        0.056 s           0.057 s
  | Total energy evaluation                    :        0.000 s           0.000 s
------------------------------------------------------------

------------------------------------------------------------
          Begin self-consistency iteration #    8

  Date     :  20150727, Time     :  125013.106
------------------------------------------------------------
  Evaluating new KS density.
  Integration grid: deviation in total charge (<rho> - N_e) =   0.000000E+00
  Pulay mixing of updated and previous charge densities.

  Evaluating partitioned Hartree potential by multipole expansion.
  | Analytical far-field extrapolation by fixed multipoles:
  | Hartree multipole sum: apparent total charge =  -0.331951E-05
  Summing up the Hartree potential.
  Time summed over all CPUs for potential: real work        2.895 s, elapsed        2.901 s
  | RMS charge density error from multipole expansion :   0.184465E-01

  Integrating Hamiltonian matrix: batch-based integration.
  Time summed over all CPUs for integration: real work        8.456 s, elapsed        8.617 s

  Updating Kohn-Sham eigenvalues, eigenvectors, occupation numbers, and Fermi level.
  Solving generalized eigenproblem
  Updating Kohn-Sham eigenvalues and eigenfunctions.
  Solving real generalised eigenvalue problem by standard LAPACK (fast)
  Determining occupation numbers for Kohn-Sham eigenstates.
  | Chemical potential (Fermi level) in eV                 : -.19724674E+01
  | Error in electron count due to remaining E_F inaccuracy: 0.75083051E-10
  | Maximum occupation number of highest empty state:  0.00E+00

  Highest occupied state (VBM) at     -1.97246742 eV
  | Occupation number:      1.00000000

  Lowest unoccupied state (CBM) at    -1.18879720 eV
  | Occupation number:      0.00000000

  Overall HOMO-LUMO gap:      0.78367022 eV.

  Total energy components:
  | Sum of eigenvalues            :        -210.03058743 Ha       -5715.22307122 eV
  | XC energy correction          :         -46.89323005 Ha       -1276.02971340 eV
  | XC potential correction       :          59.94402694 Ha        1631.15996544 eV
  | Free-atom electrostatic energy:        -178.43296283 Ha       -4855.40795903 eV
  | Hartree energy correction     :          -7.86106079 Ha        -213.91034786 eV
  | van der Waals energy corr.    :           0.00000000 Ha           0.00000000 eV
  | Entropy correction            :          -0.00010367 Ha          -0.00282095 eV
  | ---------------------------
  | Total energy                  :        -383.27381417 Ha      -10429.41112608 eV
  | Total energy, T -> 0          :        -383.27391783 Ha      -10429.41394702 eV  <-- do not rely on this value for anything but (periodic) metals
  | Electronic free energy        :        -383.27402150 Ha      -10429.41676797 eV

  Derived energy quantities:
  | Kinetic energy                :         382.45039472 Ha       10407.00474277 eV
  | Electrostatic energy          :        -718.83097883 Ha      -19560.38615545 eV
  | Energy correction for multipole
  | error in Hartree potential    :          -0.00423728 Ha          -0.11530234 eV
  | Sum of eigenvalues per atom                           :        -357.20144195 eV
  | Total energy (T->0) per atom                          :        -651.83837169 eV  <-- do not rely on this value for anything but (periodic) metals
  | Electronic free energy per atom                       :        -651.83854800 eV

  Self-consistency convergence accuracy:
  | Change of charge density      : 0.3130E-02
  | Change of sum of eigenvalues  : -.1069E+01 eV
  | Change of total energy        : 0.2072E-03 eV

  End self-consistency iteration #     8       :  max(cpu_time)    wall_clock(cpu1)
  | Time for this iteration                    :        2.204 s           2.204 s
  | Charge density update                      :        0.685 s           0.685 s
  | Density mixing                             :        0.014 s           0.015 s
  | Hartree multipole update                   :        0.005 s           0.005 s
  | Hartree multipole summation                :        0.363 s           0.363 s
  | Integration                                :        1.079 s           1.079 s
  | Solution of K.-S. eqns.                    :        0.057 s           0.057 s
  | Total energy evaluation                    :        0.000 s           0.000 s
------------------------------------------------------------

------------------------------------------------------------
          Begin self-consistency iteration #    9

  Date     :  20150727, Time     :  125015.310
------------------------------------------------------------
  Evaluating new KS density.
  Integration grid: deviation in total charge (<rho> - N_e) =   7.508305E-11
  Pulay mixing of updated and previous charge densities.

  Evaluating partitioned Hartree potential by multipole expansion.
  | Analytical far-field extrapolation by fixed multipoles:
  | Hartree multipole sum: apparent total charge =  -0.331575E-05
  Summing up the Hartree potential.
  Time summed over all CPUs for potential: real work        2.895 s, elapsed        2.900 s
  | RMS charge density error from multipole expansion :   0.184410E-01

  Integrating Hamiltonian matrix: batch-based integration.
  Time summed over all CPUs for integration: real work        8.458 s, elapsed        8.630 s

  Updating Kohn-Sham eigenvalues, eigenvectors, occupation numbers, and Fermi level.
  Solving generalized eigenproblem
  Updating Kohn-Sham eigenvalues and eigenfunctions.
  Solving real generalised eigenvalue problem by standard LAPACK (fast)
  Determining occupation numbers for Kohn-Sham eigenstates.
  | Chemical potential (Fermi level) in eV                 : -.19730462E+01
  | Error in electron count due to remaining E_F inaccuracy: 0.30773606E-09
  | Maximum occupation number of highest empty state:  0.00E+00

  Highest occupied state (VBM) at     -1.97304616 eV
  | Occupation number:      1.00000000

  Lowest unoccupied state (CBM) at    -1.18820729 eV
  | Occupation number:      0.00000000

  Overall HOMO-LUMO gap:      0.78483887 eV.

  Total energy components:
  | Sum of eigenvalues            :        -210.02816866 Ha       -5715.15725312 eV
  | XC energy correction          :         -46.89354638 Ha       -1276.03832102 eV
  | XC potential correction       :          59.94444469 Ha        1631.17133319 eV
  | Free-atom electrostatic energy:        -178.43296283 Ha       -4855.40795903 eV
  | Hartree energy correction     :          -7.86358014 Ha        -213.97890278 eV
[...]
   Van der Waals               : -.103619E-03 0.397190E-02 0.126551E-02
   ----------------------------------------------------------------
   Total forces(   7)            : -.340371E+00 0.324591E+00 -.268880E+01
  atom #    8
   Hellmann-Feynman + Multipole  : -.795420E+00 -.464841E+01 -.151483E+02
   Pulay + GGA                   : 0.147644E+01 0.502007E+01 0.132498E+02
   Van der Waals               : -.805172E-02 -.262716E-02 -.828648E-03
   ----------------------------------------------------------------
   Total forces(   8)            : 0.672966E+00 0.369037E+00 -.189933E+01
  atom #    9
   Hellmann-Feynman + Multipole  : -.235964E+00 -.145295E+00 0.411636E+00
   Pulay + GGA                   : 0.112676E+00 0.595213E-01 0.490773E-01
   Van der Waals               : -.527076E-02 -.513079E-03 -.253543E-02
   ----------------------------------------------------------------
   Total forces(   9)            : -.128559E+00 -.862863E-01 0.458178E+00
  atom #   10
   Hellmann-Feynman + Multipole  : -.510158E+00 -.220531E+00 0.131507E+01
   Pulay + GGA                   : -.633657E-01 -.587866E-01 0.914080E-01
   Van der Waals               : 0.199330E-02 -.426432E-02 -.139890E-02
   ----------------------------------------------------------------
   Total forces(  10)            : -.571530E+00 -.283582E+00 0.140508E+01
  atom #   11
   Hellmann-Feynman + Multipole  : -.106503E+02 -.286715E+01 0.817578E+00
   Pulay + GGA                   : 0.112056E+02 0.442673E+01 -.183480E+01
   Van der Waals               : -.132978E-02 0.128685E-02 -.294005E-02
   ----------------------------------------------------------------
   Total forces(  11)            : 0.553989E+00 0.156087E+01 -.102017E+01
  atom #   12
   Hellmann-Feynman + Multipole  : 0.181868E+00 -.401013E+00 0.331951E+00
   Pulay + GGA                   : 0.809300E-01 -.337417E-01 0.187262E-01
   Van der Waals               : 0.177390E-02 -.338730E-02 -.302788E-02
   ----------------------------------------------------------------
   Total forces(  12)            : 0.264572E+00 -.438142E+00 0.347650E+00
  atom #   13
   Hellmann-Feynman + Multipole  : -.728514E+00 -.119301E+01 0.549784E+00
   Pulay + GGA                   : 0.507556E-01 0.962704E-01 -.664487E-01
   Van der Waals               : -.723277E-03 -.570556E-02 0.205186E-02
   ----------------------------------------------------------------
   Total forces(  13)            : -.678481E+00 -.110244E+01 0.485387E+00
  atom #   14
   Hellmann-Feynman + Multipole  : 0.109308E+01 -.152925E+02 0.164178E+01
   Pulay + GGA                   : -.658879E-01 0.153880E+02 -.298896E+01
   Van der Waals               : -.194295E-03 -.412376E-02 -.394138E-02
   ----------------------------------------------------------------
   Total forces(  14)            : 0.102699E+01 0.914314E-01 -.135113E+01
  atom #   15
   Hellmann-Feynman + Multipole  : -.273096E+00 0.470529E+00 0.261168E+00
   Pulay + GGA                   : -.705953E-01 0.914972E-01 0.821152E-01
   Van der Waals               : 0.455403E-02 -.149044E-02 -.481009E-02
   ----------------------------------------------------------------
   Total forces(  15)            : -.339137E+00 0.560536E+00 0.338473E+00
  atom #   16
   Hellmann-Feynman + Multipole  : -.807635E+00 -.777757E+00 0.123226E+01
   Pulay + GGA                   : 0.328609E-01 0.640198E-01 -.668966E-01
   Van der Waals               : -.470708E-03 -.243912E-02 -.512661E-03
   ----------------------------------------------------------------
   Total forces(  16)            : -.775245E+00 -.716176E+00 0.116485E+01
  Timings for vdw_correction_hirshfeld (Tkatchenko-Scheffler 2009):
  | CPU time:        5.764 s, Wall clock time:        5.765 s.
  Removing unitary transformations (pure translations, rotations) from forces on atoms.
  Atomic forces before filtering:
  | Net force on center of mass :  0.758163E-02 0.338322E-02 -.123661E-01 eV/A
  | Net torque on center of mass:  0.193640E-02 0.897485E-02 -.105018E-01 eV
  Atomic forces after filtering:
  | Net force on center of mass :  -.892031E-16 -.892031E-16 -.356812E-15 eV/A
  | Net torque on center of mass:  0.000000E+00 -.226580E-14 -.472042E-15 eV
 
  Energy and forces in a compact form:
  | Total energy uncorrected      :         -0.104295081924225E+05 eV
  | Total energy corrected        :         -0.104295110133704E+05 eV  <-- do not rely on this value for anything but (periodic) metals
  | Electronic free energy        :         -0.104295138343183E+05 eV
  Total atomic forces (unitary forces cleaned) [eV/Ang]:
  |   1         -0.140152349040200E+00          0.703496412166134E+00         -0.420748014014464E+00
  |   2         -0.422112711093091E-01         -0.178172246567774E+00          0.285040508370092E-01
  |   3         -0.300198171826978E-01         -0.138915737039066E+00          0.104513120504300E+00
  |   4          0.343991124684193E-01         -0.574054448282575E-01          0.190467502428205E+00
  |   5          0.422158865178281E+00         -0.908684438155063E+00          0.262312429822671E+01
  |   6          0.773070986035681E-01          0.301666986925577E+00          0.226153189834582E+00
  |   7         -0.340497565447110E+00          0.324175375603738E+00         -0.268817553823152E+01
  |   8          0.672353309725762E+00          0.369106520958665E+00         -0.189832362667396E+01
  |   9         -0.129275371419884E+00         -0.861173998170731E-01          0.459266784504784E+00
  |  10         -0.572186272075943E+00         -0.283575614607354E+00          0.140602459045901E+01
  |  11          0.553351416385672E+00          0.156065583489029E+01         -0.101941146317391E+01
  |  12          0.263945035423154E+00         -0.438244471953137E+00          0.348504892738855E+00
  |  13         -0.679180215370094E+00         -0.110262118113050E+01          0.486169199481463E+00
  |  14          0.102616346528187E+01          0.910470295207207E-01         -0.135054442331554E+01
  |  15         -0.340108400956823E+00          0.560098446602961E+00          0.338996106247476E+00
  |  16         -0.776047040464667E+00         -0.716510072569858E+00          0.116547933014699E+01
 
  ------------------------------------ 
  Start decomposition of the XC Energy 
  ------------------------------------ 
  Hartree-Fock part   :          0.000000000 Ha              0.000000000 eV
  ------------------------------------ 
  X Energy            :        -45.235041715 Ha          -1230.908112981 eV
  C Energy GGA        :         -1.658571016 Ha            -45.132013641 eV
  Total XC Energy     :        -46.893612731 Ha          -1276.040126622 eV
  LDA X and C from self-consistent density 
  X Energy LDA        :        -40.774785315 Ha          -1109.538361101 eV
  C Energy LDA        :         -3.339920265 Ha            -90.883854528 eV
  ------------------------------------ 
  End decomposition of the XC Energy 
  ------------------------------------ 
  Performing Hirshfeld analysis of fragment charges and moments.
  ----------------------------------------------------------------------
  | Atom     1: O
  |   Hirshfeld charge        :     -0.13144372
  |   Free atom volume        :     23.95238533
  |   Hirshfeld volume        :     23.32134753
  |   Hirshfeld dipole vector :     -0.00875224       0.04158051       0.01602675
  |   Hirshfeld dipole moment :      0.04541363
  |   Hirshfeld second moments:      0.05390097      -0.00350274      -0.00829532
  |                                 -0.00350274       0.00863463      -0.02627601
  |                                 -0.00829532      -0.02627601       0.03000698
  ----------------------------------------------------------------------
  | Atom     2: H
  |   Hirshfeld charge        :      0.10721908
  |   Free atom volume        :     10.44207651
  |   Hirshfeld volume        :     10.23775204
  |   Hirshfeld dipole vector :     -0.00864582       0.01765362       0.00129486
  |   Hirshfeld dipole moment :      0.01969968
  |   Hirshfeld second moments:      0.03378465       0.01614649       0.00396701
  |                                  0.01614649       0.01997473       0.00944592
  |                                  0.00396701       0.00944592       0.04656877
  ----------------------------------------------------------------------
  | Atom     3: H
  |   Hirshfeld charge        :      0.07344696
  |   Free atom volume        :     10.44207651
  |   Hirshfeld volume        :     14.22910505
  |   Hirshfeld dipole vector :     -0.01254743       0.03103671      -0.00147738
  |   Hirshfeld dipole moment :      0.03350967
  |   Hirshfeld second moments:     -0.06640344       0.00120589      -0.00525876
  |                                  0.00120589      -0.01903892       0.01044019
  |                                 -0.00525876       0.01044019      -0.03372203
  ----------------------------------------------------------------------
  | Atom     4: H
  |   Hirshfeld charge        :      0.08303769
  |   Free atom volume        :     10.44207651
  |   Hirshfeld volume        :     13.81439875
  |   Hirshfeld dipole vector :     -0.02298709       0.02546650      -0.00136742
  |   Hirshfeld dipole moment :      0.03433393
  |   Hirshfeld second moments:     -0.01600457       0.00474730      -0.00013832
  |                                  0.00474730      -0.01267681       0.01272568
  |                                 -0.00013832       0.01272568      -0.06033183
  ----------------------------------------------------------------------
  | Atom     5: O
  |   Hirshfeld charge        :     -0.21139778
  |   Free atom volume        :     23.95238533
  |   Hirshfeld volume        :     21.77032675
  |   Hirshfeld dipole vector :      0.02616509       0.00837474      -0.01252385
  |   Hirshfeld dipole moment :      0.03019263
  |   Hirshfeld second moments:      0.00778449      -0.00109336       0.03250566
  |                                 -0.00109336       0.06143275       0.00481266
  |                                  0.03250566       0.00481266       0.07144193
  ----------------------------------------------------------------------
  | Atom     6: H
  |   Hirshfeld charge        :      0.10608842
  |   Free atom volume        :     10.44207651
  |   Hirshfeld volume        :      9.21151466
  |   Hirshfeld dipole vector :      0.01462464       0.03467104       0.01610737
  |   Hirshfeld dipole moment :      0.04093175
  |   Hirshfeld second moments:      0.04337434      -0.01747937       0.00416279
  |                                 -0.01747937       0.04619499      -0.01571217
  |                                  0.00416279      -0.01571217       0.06727634
  ----------------------------------------------------------------------
  | Atom     7: H
  |   Hirshfeld charge        :      0.12600951
  |   Free atom volume        :     10.44207651
  |   Hirshfeld volume        :      9.97181059
  |   Hirshfeld dipole vector :     -0.01858587       0.01144766      -0.07579407
  |   Hirshfeld dipole moment :      0.07887474
  |   Hirshfeld second moments:      0.04261251       0.00427362       0.01358860
  |                                  0.00427362       0.06679907       0.00606295
  |                                  0.01358860       0.00606295       0.04712456
  ----------------------------------------------------------------------
  | Atom     8: O
  |   Hirshfeld charge        :     -0.27346664
  |   Free atom volume        :     23.95238533
  |   Hirshfeld volume        :     22.89787844
  |   Hirshfeld dipole vector :     -0.01839294       0.04748942       0.04827032
  |   Hirshfeld dipole moment :      0.07016815
  |   Hirshfeld second moments:      0.04803934       0.04174201       0.00668135
  |                                  0.04174201      -0.02478510      -0.02705686
  |                                  0.00668135      -0.02705686       0.00780478
  ----------------------------------------------------------------------
  | Atom     9: H
  |   Hirshfeld charge        :      0.12367200
  |   Free atom volume        :     10.44207651
  |   Hirshfeld volume        :      9.59690604
  |   Hirshfeld dipole vector :      0.06957993       0.05631805       0.02976715
  |   Hirshfeld dipole moment :      0.09433542
  |   Hirshfeld second moments:      0.07336683       0.00849913      -0.00413349
  |                                  0.00849913       0.03388904      -0.01695123
  |                                 -0.00413349      -0.01695123       0.06279962
  ----------------------------------------------------------------------
  | Atom    10: H
  |   Hirshfeld charge        :      0.11484491
  |   Free atom volume        :     10.44207651
  |   Hirshfeld volume        :     10.02448308
  |   Hirshfeld dipole vector :     -0.05594295       0.00062045       0.06432864
  |   Hirshfeld dipole moment :      0.08525358
  |   Hirshfeld second moments:      0.05559138       0.00843234       0.01830416
  |                                  0.00843234       0.01738182      -0.00041037
  |                                  0.01830416      -0.00041037       0.06087007
  ----------------------------------------------------------------------
  | Atom    11: O
  |   Hirshfeld charge        :     -0.20988713
  |   Free atom volume        :     23.95238533
  |   Hirshfeld volume        :     21.27832258
  |   Hirshfeld dipole vector :      0.00008101      -0.00978847       0.01125133
  |   Hirshfeld dipole moment :      0.01491352
  |   Hirshfeld second moments:      0.05139625       0.00424940       0.00414526
  |                                  0.00424940       0.06993200      -0.02059673
  |                                  0.00414526      -0.02059673       0.03908424
  ----------------------------------------------------------------------
  | Atom    12: H
  |   Hirshfeld charge        :      0.09749366
  |   Free atom volume        :     10.44207651
  |   Hirshfeld volume        :      9.04342903
  |   Hirshfeld dipole vector :      0.03311449      -0.01243850       0.01644877
  |   Hirshfeld dipole moment :      0.03901087
  |   Hirshfeld second moments:      0.04642638       0.02504161      -0.00961635
  |                                  0.02504161       0.06228355      -0.00189699
  |                                 -0.00961635      -0.00189699       0.05291191
  ----------------------------------------------------------------------
  | Atom    13: H
  |   Hirshfeld charge        :      0.12283840
  |   Free atom volume        :     10.44207651
  |   Hirshfeld volume        :      9.40302154
  |   Hirshfeld dipole vector :      0.02121309       0.06570019      -0.02531953
  |   Hirshfeld dipole moment :      0.07353631
  |   Hirshfeld second moments:      0.07065010      -0.00650793       0.00373924
  |                                 -0.00650793       0.05468066       0.00137492
  |                                  0.00373924       0.00137492       0.05088901
  ----------------------------------------------------------------------
  | Atom    14: O
  |   Hirshfeld charge        :     -0.33346631
  |   Free atom volume        :     23.95238533
  |   Hirshfeld volume        :     23.43986805
  |   Hirshfeld dipole vector :     -0.00421579       0.07063745      -0.01256489
  |   Hirshfeld dipole moment :      0.07187001
  |   Hirshfeld second moments:     -0.02711648      -0.02094830      -0.05962770
  |                                 -0.02094830      -0.03735355       0.01011796
  |                                 -0.05962770       0.01011796       0.00251840
  ----------------------------------------------------------------------
  | Atom    15: H
  |   Hirshfeld charge        :      0.11999717
  |   Free atom volume        :     10.44207651
  |   Hirshfeld volume        :      7.52320187
  |   Hirshfeld dipole vector :     -0.06201150       0.08623187       0.06186995
  |   Hirshfeld dipole moment :      0.12291970
  |   Hirshfeld second moments:      0.08511485      -0.00011874      -0.01892787
  |                                 -0.00011874       0.08387322      -0.00560599
  |                                 -0.01892787      -0.00560599       0.09992633
  ----------------------------------------------------------------------
  | Atom    16: H
  |   Hirshfeld charge        :      0.08496953
  |   Free atom volume        :     10.44207651
  |   Hirshfeld volume        :      8.79039455
  |   Hirshfeld dipole vector :      0.02016951       0.04043665      -0.04085313
  |   Hirshfeld dipole moment :      0.06091724
  |   Hirshfeld second moments:      0.05251050      -0.02134124       0.00837315
  |                                 -0.02134124       0.06844819       0.01623893
  |                                  0.00837315       0.01623893       0.03987351
  ----------------------------------------------------------------------


------------------------------------------------------------------------------
  Final output of selected total energy values:

  The following output summarizes some interesting total energy values
  at the end of a run (AFTER all relaxation, molecular dynamics, etc.).

  | Total energy of the DFT / Hartree-Fock s.c.f. calculation      :         -10429.508192422 eV
  | Final zero-broadening corrected energy (caution - metals only) :         -10429.511013370 eV
  | For reference only, the value of 1 Hartree used in FHI-aims is :             27.211384500 eV

  Before relying on these values, please be sure to understand exactly which
  total energy value is referred to by a given number. Different objects may
  all carry the same name 'total energy'. Definitions:

  Total energy of the DFT / Hartree-Fock s.c.f. calculation:
  | Note that this energy does not include ANY quantities calculated after the
  | s.c.f. cycle, in particular not ANY RPA, MP2, etc. many-body perturbation terms.

  Final zero-broadening corrected energy:
  | For metallic systems only, a broadening of the occupation numbers at the Fermi
  | level can be extrapolated back to zero broadening by an electron-gas inspired
  | formula. For all systems that are not real metals, this value can be
  | meaningless and should be avoided.

------------------------------------------------------------------------------

------------------------------------------------------------
          Leaving FHI-aims.
          Date     :  20150727, Time     :  125035.084

          Computational steps:
          | Number of self-consistency cycles          :           15

          Detailed time accounting                     :  max(cpu_time)    wall_clock(cpu1)
          | Total time                                 :       40.161 s          40.200 s
          | Preparation time                           :        0.169 s           0.485 s
          | Grid partitioning                          :        0.160 s           0.161 s
          | Preloading free-atom quantities on grid    :        0.013 s           0.014 s
          | Free-atom superposition energy             :        0.074 s           0.073 s
          | Total time for integrations                :       17.847 s          17.844 s
          | Total time for solution of K.-S. equations :        1.065 s           1.070 s
          | Total time for density & force components  :       13.251 s          13.252 s
          | Total time for mixing                      :        0.203 s           0.204 s
          | Total time for Hartree multipole update    :        0.075 s           0.072 s
          | Total time for Hartree multipole sum       :        6.660 s           6.662 s
          | Total time for total energy evaluation     :        0.003 s           0.005 s
          | Total time for scaled ZORA corrections     :        0.000 s           0.000 s
          | Total time for TS (2009) vdW correction    :        0.058 s           0.058 s

          Have a nice day.
------------------------------------------------------------
