  MPI-parallelism will be employed.
------------------------------------------------------------
          Invoking FHI-aims ...
          Version 081213
          Compiled on 2013/08/29 at 17:41:06 on host generoso.

          When using FHI-aims, please cite the following reference:

          Volker Blum, Ralf Gehrke, Felix Hanke, Paula Havu,
          Ville Havu, Xinguo Ren, Karsten Reuter, and Matthias Scheffler,
          'Ab Initio Molecular Simulations with Numeric Atom-Centered Orbitals: FHI-aims',
          Computer Physics Communications 180, 2175-2196 (2009)

          For any questions about FHI-aims, please visit the aimsclub website
          with its forums and wiki. Contributions to both the forums and the
          wiki are warmly encouraged - they are for you, and everyone is welcome there.

------------------------------------------------------------

  Date     :  20150727, Time     :  130452.803
  Time zero on CPU 1             :   0.479910000000000E-01  s.
  Internal wall clock time zero  :           207234292.803  s.

  Using        8 parallel tasks.
  Task        0 on host gen59 reporting.
  Task        1 on host gen59 reporting.
  Task        2 on host gen59 reporting.
  Task        3 on host gen59 reporting.
  Task        4 on host gen59 reporting.
  Task        5 on host gen59 reporting.
  Task        6 on host gen59 reporting.
  Task        7 on host gen59 reporting.

  Performing system and environment tests:
  | Environment variable OMP_NUM_THREADS correctly set to 1.
  | Checking for scalapack...
  | No scalapack compiled in.

  Obtaining array dimensions for all initial allocations:
  
  -----------------------------------------------------------------------
  Parsing control.in (first pass over file, find array dimensions only).
  The contents of control.in will be repeated verbatim below
  unless switched off by setting 'verbatim_writeout .false.' .
  in the first line of control.in .
  -----------------------------------------------------------------------
  
  #########################################################################################
  #
  #  Volker Blum, FHI 2008 : Test run input file control.in
  #
  #########################################################################################
  #
  #  Physical model
  #
    xc                 rpbe
    spin               none
    relativistic       atomic_zora scalar
    charge             0.
   vdw_correction_hirshfeld
  #
  #  SCF convergence
  #
    occupation_type    gaussian 0.01
    mixer              pulay
      n_max_pulay        10
      charge_mix_param   0.1
    sc_accuracy_rho    5E-5
    sc_accuracy_eev    5E-3
    sc_accuracy_etot   5E-6
    sc_iter_limit      3000
  #
  #  Eigenvalue solver
  #
    KS_method          lapack
      empty_states       8
      basis_threshold    0.e-5
  #
  #  Efficiency
  #
  #   all previous settings are now default, except stratmann still
  #   undecided. Continue to handle stratmann with care, if at all.
  #
  #  partition_type stratmann
    partition_type rho_r2
  #  hartree_partition_type stratmann
  #
  #  Oprions for large clusters (100's of atoms: memory saving / better scaling)
  #
  # for periodic systems:
  #
    density_update_method orbital
    packed_matrix_format none
  #  k_grid 6 6 6
  #  output k_eigenvalue 1
  #  distributed_spline_storage .true.
  #
  #  Relaxation
  #
  #  relax_geometry   bfgs 5.e-3
    sc_accuracy_forces 5.E-4
    final_forces_cleaned .true.
  #
  #  Output options
  #
  #  output mulliken
    output Hirshfeld
  #  output dipole
  
  #harmonic_length_scale 0.001
  
  ################################################################################
  #
  #  FHI-aims code project
  #  VB, Fritz-Haber Institut, 2007
  #
  #  Suggested "safe" defaults for H atom (to be pasted into control.in file)
  #  Basis constructed for a non-relativistic H2 molecule using the
  #  PW-LDA functional.
  #
  ################################################################################
    species        H
  #     global species definitions
      nucleus             1
      cut_pot             4.0  2.0  1.0
      cut_free_atom       finite 8.0
      logarithmic         0.00010000 100.00  1.0123
      basis_dep_cutoff    1d-4  # 1d-4 is safe default - please check 5d-4 if you wish!
      radial_base         24 7.0
      radial_multiplier   2
      angular_grids       specified
        division   0.2783  110
        division   0.3822  194
        division   0.5626  302
  #      division   0.5922  434
  #      division   0.6227  590
  #      division   0.7206  770
        outer_grid  302
      l_hartree           4
  ################################################################################
  #
  #  Definition of "minimal" basis
  #
  ################################################################################
  #     valence basis states
      valence      1  s   1.
  #     ion occupancy
      ion_occ      1  s   0.5
  ################################################################################
  #
  #  Suggested additional basis functions. For production calculations,
  #  uncomment them one after another (the most important basis functions are
  #  listed first).
  #
  ################################################################################
  #  "First tier" - improvements: -1014.90 meV to -62.69 meV
       hydro 2 s 2.1
       hydro 2 p 3.5
  #  "Second tier" - improvements: -12.89 meV to -1.83 meV
       hydro 1 s 0.85
       hydro 2 p 3.7
       hydro 2 s 1.2
       hydro 3 d 7
  #  "Third tier" - improvements: -0.25 meV to -0.12 meV
  #     hydro 4 f 11.2
  #     hydro 3 p 4.8
  #     hydro 4 d 9
  #     hydro 3 s 3.2
  
  ################################################################################
  #
  #  FHI-aims code project
  #  VB, Fritz-Haber Institut, 2007
  #
  #  Suggested "safe" defaults for O atom (to be pasted into control.in file)
  #  All values have been tested for a non-relativistic, non-spinpolarized O2
  #  molecule using the PW-LDA functional. Validity for PBE is expected.
  #
  #  Constructed for dimers: 1.0 A, 1.208 A, 1.5 A, 2.0 A, 3.0 A
  #
  ################################################################################
    species        O
  #     global species definitions
      nucleus             8
      mass                15.9994
      l_hartree           4
      cut_pot             4.0  2.0  1.0
      cut_free_atom       finite 8.0
      basis_dep_cutoff    1d-4  # 1d-4 is safe default - please check 5d-4 if you wish!
      logarithmic         0.00010000 100.00  1.0123
      radial_base         36 7.0
      radial_multiplier   2
       angular_grids specified
        division   0.4087  110
        division   0.5181  194
        division   0.6184  302
  #      division   0.7315  434
  #      division   0.7934  590
  #      division   0.9656  770
  #      division   1.4041  974
  #      outer_grid 974
        outer_grid 302
  ################################################################################
  #
  #  Definition of "minimal" basis
  #
  ################################################################################
  #     valence basis states
      valence      2  s   2.
      valence      2  p   4.
  #     ion occupancy
      ion_occ      2  s   1.
      ion_occ      2  p   3.
  ################################################################################
  #
  #  Suggested additional basis functions. For production calculations,
  #  uncomment them one after another (the most important basis functions are
  #  listed first).
  #
  ################################################################################
  #  "First tier" - improvements: -699.05 meV to -159.38 meV
       hydro 2 p 1.8
       hydro 3 d 7.6
       hydro 3 s 6.4
  #  "Second tier" - improvements: -49.91 meV to -5.39 meV
       hydro 4 f 11.6
       hydro 3 p 6.2
       hydro 3 d 5.6
       hydro 5 g 17.6
       hydro 1 s 0.75
  #  "Third tier" - improvements: -2.83 meV to -0.50 meV
  #     ionic 2 p auto
  #     hydro 4 f 10.8
  #     hydro 4 d 4.7
  #     hydro 2 s 6.8
  #  "Fourth tier" - improvements: -0.40 meV to -0.12 meV
  #     hydro 3 p 5
  #     hydro 3 s 3.3
  #     hydro 5 g 15.6
  #     hydro 4 f 17.6
  #     hydro 4 d 14
  # Further basis functions - -0.08 meV and below
  #     hydro 3 s 2.1
  #     hydro 4 d 11.6
  #     hydro 3 p 16
  #     hydro 2 s 17.2
  
  
  -----------------------------------------------------------------------
  Completed first pass over input file control.in .
  -----------------------------------------------------------------------
  
  
  -----------------------------------------------------------------------
  Parsing geometry.in (first pass over file, find array dimensions only).
  The contents of geometry.in will be repeated verbatim below
  unless switched off by setting 'verbatim_writeout .false.' .
  in the first line of geometry.in .
  -----------------------------------------------------------------------
  
  atom      -4.053030000      0.065001000     -1.525160000  O
  atom      -4.566710000      0.974813000     -1.912820000  H
  atom      -3.067820000      0.330172000     -1.477310000  H
  atom      -4.370360000     -0.049164000     -0.572274000  H
  atom      -1.975360000      2.858040000      0.453140000  O
  atom      -1.223550000      3.375850000      0.786238000  H
  atom      -2.537520000      2.567960000      1.156120000  H
  
  -----------------------------------------------------------------------
  Completed first pass over input file geometry.in .
  -----------------------------------------------------------------------
  
 
  Basic array size parameters: 
  | Number of species                 :        2
  | Number of atoms                   :        7
  | Max. basis fn. angular momentum   :        4
  | Max. atomic/ionic basis occupied n:        2
  | Max. number of basis fn. types    :        2
  | Max. radial fns per species/type  :        8
  | Max. logarithmic grid size        :     1301
  | Max. radial integration grid size :       73
  | Max. angular integration grid size:      302
  | Max. angular grid division number :        8
  | Radial grid for Hartree potential :     1301
  | Number of spin channels           :        1

------------------------------------------------------------
          Reading file control.in.
------------------------------------------------------------
  XC: Using RPBE gradient-corrected functionals.
  Spin treatment: No spin polarisation.
  Scalar relativistic treatment of kinetic energy: on-site free-atom approximation to ZORA.
  Charge =   0.000000E+00: Neutral system requested explicitly.
  Using non-empirical van der Waals correction (Hirshfeld partitioning):
  Occupation type: Gaussian broadening, width =   0.100000E-01 eV.
  Using pulay charge density mixing.
  Pulay mixing - number of memorized iterations:   10
  Charge density mixing - mixing parameter:     0.1000
  Convergence accuracy of self-consistent charge density: 0.5000E-04
  Convergence accuracy of sum of eigenvalues: 0.5000E-02
  Convergence accuracy of total energy: 0.5000E-05
  Maximum number of s.-c. iterations  :  3000
  Kohn-Sham eigenvalues and eigenfunctions calculated by lapack diagonalisation (D&C).
  Number of empty states per atom:        8
  Threshold for basis singularities: 0.0000E+00
  Partition function in integrals calculations: rho / r^2
 Using packed matrix format           0
  Convergence accuracy of forces: 0.5000E-03
  Cleaning forces before final output.
  Hirshfeld charge analysis will be performed.
 
  Reading configuration options for species H                   .
  | Found nuclear charge :   1.0000
  | Found cutoff potl. onset [A], width [A], scale factor :    4.00000    2.00000    1.00000
  | Found cutoff specification for free atom: Cutoff potential begins at    8.00000 A.
  | Found logarithmic grid data [bohr] : 0.1000E-03 0.1000E+03 0.1012E+01
  | Threshold for basis-dependent cutoff potential is   0.100000E-03
  | Found data for basic radial integration grid :    24 points, outermost radius =    7.000 A
  | Found multiplier for basic radial grid :   2
  | Found angular grid specification: user-specified.
  | Specified grid contains     4 separate shells.
  | Check grid settings after all constraints further below.
  | Found l_max for Hartree potential  :   4
  | Found free-atom valence shell :  1 s   1.000
  | No ionic wave fns used. Skipping ion_occ.
  | Found hydrogenic basis function :  2 s   2.100
  | Found hydrogenic basis function :  2 p   3.500
  | Found hydrogenic basis function :  1 s   0.850
  | Found hydrogenic basis function :  2 p   3.700
  | Found hydrogenic basis function :  2 s   1.200
  | Found hydrogenic basis function :  3 d   7.000
  Species H                   : Missing cutoff potential type.
  Defaulting to exp(1/x)/(1-x)^2 type cutoff potential.
  Species H : On-site basis accuracy parameter (for Gram-Schmidt orthonormalisation) not specified.
  Using default value basis_acc =  0.1000000E-03.
  Species H                   : Using default innermost maximum threshold i_radial=  2 for radial functions.
  Species H                   : Basic radial grid will be enhanced according to radial_multiplier =   2, to contain    49 grid points.
 
  Reading configuration options for species O                   .
  | Found nuclear charge :   8.0000
  | Found atomic mass :    15.9994000000000      amu
  | Found l_max for Hartree potential  :   4
  | Found cutoff potl. onset [A], width [A], scale factor :    4.00000    2.00000    1.00000
  | Found cutoff specification for free atom: Cutoff potential begins at    8.00000 A.
  | Threshold for basis-dependent cutoff potential is   0.100000E-03
  | Found logarithmic grid data [bohr] : 0.1000E-03 0.1000E+03 0.1012E+01
  | Found data for basic radial integration grid :    36 points, outermost radius =    7.000 A
  | Found multiplier for basic radial grid :   2
  | Found angular grid specification: user-specified.
  | Specified grid contains     4 separate shells.
  | Check grid settings after all constraints further below.
  | Found free-atom valence shell :  2 s   2.000
  | Found free-atom valence shell :  2 p   4.000
  | No ionic wave fns used. Skipping ion_occ.
  | No ionic wave fns used. Skipping ion_occ.
  | Found hydrogenic basis function :  2 p   1.800
  | Found hydrogenic basis function :  3 d   7.600
  | Found hydrogenic basis function :  3 s   6.400
  | Found hydrogenic basis function :  4 f  11.600
  | Found hydrogenic basis function :  3 p   6.200
  | Found hydrogenic basis function :  3 d   5.600
  | Found hydrogenic basis function :  5 g  17.600
  | Found hydrogenic basis function :  1 s   0.750
  Species O                   : Missing cutoff potential type.
  Defaulting to exp(1/x)/(1-x)^2 type cutoff potential.
  Species O : On-site basis accuracy parameter (for Gram-Schmidt orthonormalisation) not specified.
  Using default value basis_acc =  0.1000000E-03.
  Species O                   : Using default innermost maximum threshold i_radial=  2 for radial functions.
  Species O                   : Basic radial grid will be enhanced according to radial_multiplier =   2, to contain    73 grid points.
 
  Finished reading input file 'control.in'. Consistency checks are next.
 
  Target number of points in a grid batch is not set. Defaulting to  100
  Method for grid partitioning is not set. Defaulting to parallel hash+maxmin partitioning.
  Batch size limit is not set. Defaulting to    200
  By default, will store active basis functions for each batch.
  If in need of memory, prune_basis_once .false. can be used to disable this option.
  communication_type for Hartree potential was not specified.
  Defaulting to calc_hartree .
  Pulay mixer: Number of initial linear mixing iterations not set.
  Defaulting to    0 iterations.
  Work space size for distributed Hartree potential not set.
  Defaulting to   0.200000E+03 MB.
  Algorithm-dependent basis array size parameters:
  | n_max_pulay                         :       10
  Geometry relaxation not requested: no relaxation will be performed.
  Handling of forces: Unphysical translation and rotation will be removed from forces.
  No accuracy limit for integral partition fn. given. Defaulting to 0.1000E-14.
  No threshold value for u(r) in integrations given. Defaulting to 0.1000E-05.
  No accuracy for occupation numbers given. Defaulting to 0.1000E-07.
  No threshold value for occupation numbers given. Defaulting to 0.0000E+00.
  No accuracy for fermi level given. Defaulting to 0.1000E-19.
  Maximum # of iterations to find E_F not set. Defaulting to  200.
  Will not use alltoall communication since running on < 1024 CPUs.
  Partitioning for Hartree potential was not defined. Using partition_type for integrals.
  | Reporting present value of keyword multip_moments_threshold  :       0.10000000E-09
  | This value may affect high angular momentum components of the Hartree potential in periodic systems.
  No q(lm)/r^(l+1) cutoff set for long-range Hartree potential.
  | Using default value of  0.100000E-09 .
  | Verify using the multipole_threshold keyword.
  Defaulting to new monopole extrapolation.
  Density update method: Loop over occupied states selected for charge density update.
------------------------------------------------------------


------------------------------------------------------------
          Reading geometry description geometry.in.
------------------------------------------------------------
  Input structure read successfully.
  The structure contains        7 atoms,  and a total of         21.000 electrons.

  Input geometry:
  | No unit cell requested.
  | Atomic structure:
  |       Atom                x [A]            y [A]            z [A]
  |    1: Species O             -4.053030         0.065001        -1.525160
  |    2: Species H             -4.566710         0.974813        -1.912820
  |    3: Species H             -3.067820         0.330172        -1.477310
  |    4: Species H             -4.370360        -0.049164        -0.572274
  |    5: Species O             -1.975360         2.858040         0.453140
  |    6: Species H             -1.223550         3.375850         0.786238
  |    7: Species H             -2.537520         2.567960         1.156120
  |

  | The smallest distance between any two atoms is         0.94570141 AA.
  |
  | The first atom of this pair is atom number                      5 .
  | The second atom of this pair is atom number                     7 .

  Structure-dependent array size parameters: 
  | Maximum number of distinct radial functions  :       18
  | Maximum number of basis functions            :      153
  | Number of Kohn-Sham states (occupied + empty):       39
------------------------------------------------------------

------------------------------------------------------------
          Preparing all fixed parts of the calculation.
------------------------------------------------------------
  Determining machine precision:
    2.225073858507201E-308
  Setting up grids for atomic and cluster calculations.

  Creating wave function, potential, and density for free atoms.

  Species: H

  List of occupied orbitals and eigenvalues:
    n    l              occ      energy [Ha]    energy [eV]
    1    0           1.0000        -0.241408        -6.5691


  Species: O

  List of occupied orbitals and eigenvalues:
    n    l              occ      energy [Ha]    energy [eV]
    1    0           2.0000       -18.944147      -515.4965
    2    0           2.0000        -0.883529       -24.0421
    2    1           4.0000        -0.330176        -8.9845

  Creating fixed part of basis set: Ionic, confined, hydrogenic.
 
  H                    hydrogenic:
 
  List of hydrogenic basis orbitals: 
    n    l      effective z      eigenvalue [eV]  inner max. [A]     outer max. [A]     outer radius [A]   
    2    0         2.100000       -14.9965           0.193241           1.317192           5.372934
    2    1         3.500000       -41.6672           0.602363           0.602363           4.056010
    1    0         0.850000        -9.8292           0.624864           0.624864           5.372934
    2    1         3.700000       -46.5653           0.573616           0.573616           3.909951
    2    0         1.200000        -4.5995           0.334977           2.228160           5.505921
    3    2         7.000000       -74.0753           0.680692           0.680692           3.769152
 
 
  O                    hydrogenic:
 
  List of hydrogenic basis orbitals: 
    n    l      effective z      eigenvalue [eV]  inner max. [A]     outer max. [A]     outer radius [A]   
    2    1         1.800000       -11.0118           1.178546           1.178546           5.432516
    3    2         7.600000       -87.3182           0.624117           0.624117           3.541422
    3    0         6.400000       -61.9209           0.061166           1.081887           4.306510
    4    3        11.600000      -114.4238           0.731621           0.731621           3.584982
    3    1         6.200000       -58.1113           0.255677           1.030255           4.306510
    3    2         5.600000       -47.4081           0.847222           0.847222           4.413102
    5    4        17.600000      -168.5799           0.749730           0.749730           3.372413
    1    0         0.750000        -7.6499           0.705275           0.705275           5.366508
 

  Adding cutoff potential to free-atom effective potential.
  Creating atomic-like basis functions for current effective potential.

  Species H                   :

  List of atomic basis orbitals and eigenvalues:
    n    l      energy [Ha]    energy [eV]    outer radius [A]
    1    0        -0.241374        -6.5681       5.372934


  Species O                   :

  List of atomic basis orbitals and eigenvalues:
    n    l      energy [Ha]    energy [eV]    outer radius [A]
    1    0       -18.944147      -515.4965       1.415745
    2    0        -0.883529       -24.0421       5.048305
    2    1        -0.330173        -8.9845       5.301302

  Assembling full basis from fixed parts.
  | Species H :   atomic orbital   1 s accepted.
  | Species H :    hydro orbital   2 s accepted.
  | Species H :    hydro orbital   1 s accepted.
  | Species H :    hydro orbital   2 s accepted.
  | Species H :    hydro orbital   2 p accepted.
  | Species H :    hydro orbital   2 p accepted.
  | Species H :    hydro orbital   3 d accepted.
  | Species O :   atomic orbital   1 s accepted.
  | Species O :    hydro orbital   3 s accepted.
  | Species O :   atomic orbital   2 s accepted.
  | Species O :    hydro orbital   1 s accepted.
  | Species O :    hydro orbital   3 p accepted.
  | Species O :   atomic orbital   2 p accepted.
  | Species O :    hydro orbital   2 p accepted.
  | Species O :    hydro orbital   3 d accepted.
  | Species O :    hydro orbital   3 d accepted.
  | Species O :    hydro orbital   4 f accepted.
  | Species O :    hydro orbital   5 g accepted.
 
  Basis size parameters after reduction:
  | Total number of radial functions:       18
  | Total number of basis functions :      153
 
  Testing on-site integration grid accuracy.
  |  Species  Function  <phi|h_atom|phi> (log., in eV)  <phi|h_atom|phi> (rad., in eV)
           1        1                 -6.5683835025                 -6.5684759159
           1        2                 13.3711789951                 13.3708738703
           1        3                 23.6590910787                 23.6532055418
           1        4                 16.2963827186                 16.1870710655 ***
           1        5                 28.7627214838                 28.7627215090
           1        6                 59.5965249172                 59.5965950857
           1        7                 60.2220506392                 60.2220503827
           2        8               -515.4964576505               -515.4964530710
           2        9                 15.3030791347                 15.3030722972
           2       10                -21.7296094581                -21.7296135470
           2       11                 14.2969371730                 14.2969701621
           2       12                 21.0679693190                 21.0679697493
           2       13                 -2.3833606469                 -2.3833613176
           2       14                 13.7067136422                 13.7066766629
           2       15                 45.8013116808                 45.8013116965
           2       16                 52.2309815402                 52.2309831494
           2       17                 85.4120732416                 85.4120732763
           2       18                142.1019167745                142.1019167817
 * Note: Onsite integrals marked "***" above are less accurate than
 * onsite_accuracy_threshold =    0.03000 eV. Usually, this is harmless.
 * When in doubt, tighten the "radial" and/or "radial_multiplier" flags to check.

  Preparing densities etc. for the partition functions (integrals / Hartree potential).

  Preparations completed.
  max(cpu_time)          :      0.170 s.
  Wall clock time (cpu1) :      0.618 s.
------------------------------------------------------------

------------------------------------------------------------
          Begin self-consistency loop: Initialization.

          Date     :  20150727, Time     :  130453.458
------------------------------------------------------------

  Initializing index lists of integration centers etc. from given atomic structure:
  | Number of centers in hartree potential         :         7
  | Number of centers in hartree multipole         :         7
  | Number of centers in electron density summation:         7
  | Number of centers in basis integrals           :         7
  | Number of centers in integrals                 :         7
  Partitioning the integration grid into batches with parallel hashing+maxmin method.
  | Number of batches:     1039
  | Maximal batch size:     193
  | Minimal batch size:      49
  | Average batch size:      86.889
  | Standard deviation of batch sizes:      27.564

  Integration load balanced across     8 MPI tasks.
  Work distribution over tasks is as follows:
  Task     0 has      11232 integration points.
  Task     1 has      11337 integration points.
  Task     2 has      11262 integration points.
  Task     3 has      11261 integration points.
  Task     4 has      11270 integration points.
  Task     5 has      11269 integration points.
  Task     6 has      11323 integration points.
  Task     7 has      11324 integration points.
  Initializing partition tables, free-atom densities, potentials, etc. across the integration grid (initialize_grid_storage).
  | Net number of integration points:    90278
  | of which are non-zero points    :    89820
  Obtaining max. number of non-zero basis functions in each batch (get_n_compute_maxes).
  | Maximal number of non-zero basis functions:      152 in task     0
  | Maximal number of non-zero basis functions:      152 in task     1
  | Maximal number of non-zero basis functions:      152 in task     2
  | Maximal number of non-zero basis functions:      152 in task     3
  | Maximal number of non-zero basis functions:      152 in task     4
  | Maximal number of non-zero basis functions:      152 in task     5
  | Maximal number of non-zero basis functions:      152 in task     6
  | Maximal number of non-zero basis functions:      152 in task     7
  Integrating Hamiltonian matrix: batch-based integration.
  Time summed over all CPUs for integration: real work        1.293 s, elapsed        1.344 s
  Integrating overlap matrix.
  Time summed over all CPUs for integration: real work        0.645 s, elapsed        0.675 s

  Updating Kohn-Sham eigenvalues, eigenvectors, occupation numbers, and Fermi level.
  Solving generalized eigenproblem
  Updating Kohn-Sham eigenvalues and eigenfunctions.
  Transforming overlap matrix and checking for singularities.
  Overlap matrix is nonsingular:
  | Lowest eigenvalue:  0.363285E-03
  Solving real generalised eigenvalue problem by standard LAPACK (fast)
  Determining occupation numbers for Kohn-Sham eigenstates.
  | Chemical potential (Fermi level) in eV                 : -.29446832E+01
  | Error in electron count due to remaining E_F inaccuracy: 0.00000000E+00
  | Maximum occupation number of highest empty state:  0.00E+00

  Writing Kohn-Sham eigenvalues.

  State    Occupation    Eigenvalue [Ha]    Eigenvalue [eV]
      1       2.00000         -19.064655         -518.77566
      2       2.00000         -19.054443         -518.49778
      3       2.00000          -1.118637          -30.43966
      4       2.00000          -1.103328          -30.02309
      5       2.00000          -0.646478          -17.59156
      6       2.00000          -0.626745          -17.05461
      7       2.00000          -0.598787          -16.29382
      8       2.00000          -0.501159          -13.63722
      9       2.00000          -0.489059          -13.30797
     10       2.00000          -0.437873          -11.91512
     11       1.00000          -0.108215           -2.94468
     12       0.00000          -0.062579           -1.70285
     13       0.00000          -0.033966           -0.92427
     14       0.00000          -0.021621           -0.58834
     15       0.00000           0.004132            0.11245
     16       0.00000           0.069357            1.88730
     17       0.00000           0.075178            2.04571
     18       0.00000           0.085563            2.32828
     19       0.00000           0.104808            2.85197
     20       0.00000           0.119350            3.24768
     21       0.00000           0.122689            3.33853
     22       0.00000           0.131134            3.56833
     23       0.00000           0.193968            5.27813
     24       0.00000           0.211164            5.74606
     25       0.00000           0.228910            6.22896
     26       0.00000           0.236142            6.42574
     27       0.00000           0.313785            8.53853
     28       0.00000           0.342297            9.31437
     29       0.00000           0.351773            9.57223
     30       0.00000           0.373919           10.17486
     31       0.00000           0.378910           10.31065
     32       0.00000           0.394422           10.73277
     33       0.00000           0.421136           11.45970
     34       0.00000           0.443530           12.06906
     35       0.00000           0.472096           12.84638
     36       0.00000           0.494774           13.46348
     37       0.00000           0.545983           14.85696
     38       0.00000           0.708589           19.28169
     39       0.00000           0.721390           19.63002

  Highest occupied state (VBM) at     -2.94468316 eV
  | Occupation number:      1.00000000

  Lowest unoccupied state (CBM) at    -2.94468316 eV
  | Occupation number:      1.00000000

  Overall HOMO-LUMO gap:      0.00000000 eV.
  Calculating total energy contributions from superposition of free atom densities.

  Total energy components:
  | Sum of eigenvalues            :         -87.39054253 Ha       -2378.01765446 eV
  | XC energy correction          :         -18.54724654 Ha        -504.69625703 eV
  | XC potential correction       :          23.70004674 Ha         644.91108453 eV
  | Free-atom electrostatic energy:         -71.44480209 Ha       -1944.11198026 eV
  | Hartree energy correction     :           0.00000000 Ha           0.00000000 eV
  | van der Waals energy corr.    :           0.00000000 Ha           0.00000000 eV
  | Entropy correction            :          -0.00010367 Ha          -0.00282095 eV
  | ---------------------------
  | Total energy                  :        -153.68254442 Ha       -4181.91480722 eV
  | Total energy, T -> 0          :        -153.68264809 Ha       -4181.91762817 eV  <-- do not rely on this value for anything but (periodic) metals
  | Electronic free energy        :        -153.68275176 Ha       -4181.92044912 eV

  Derived energy quantities:
  | Kinetic energy                :         152.26401316 Ha        4143.31460767 eV
  | Electrostatic energy          :        -287.39931104 Ha       -7820.53315786 eV
  | Energy correction for multipole
  | error in Hartree potential    :           0.00000000 Ha           0.00000000 eV
  | Sum of eigenvalues per atom                           :        -339.71680778 eV
  | Total energy (T->0) per atom                          :        -597.41680402 eV  <-- do not rely on this value for anything but (periodic) metals
  | Electronic free energy per atom                       :        -597.41720702 eV
  Initialize hartree_potential_storage
  Max. number of atoms included in rho_multipole:            7

  End scf initialization - timings             :  max(cpu_time)    wall_clock(cpu1)
  | Time for scf. initialization               :        0.438 s           0.438 s
  | Boundary condition initialization          :        0.000 s           0.000 s
  | Integration                                :        0.253 s           0.253 s
  | Solution of K.-S. eqns.                    :        0.036 s           0.035 s
  | Grid partitioning                          :        0.085 s           0.085 s
  | Preloading free-atom quantities on grid    :        0.013 s           0.013 s
  | Free-atom superposition energy             :        0.020 s           0.020 s
  | Total energy evaluation                    :        0.000 s           0.000 s
------------------------------------------------------------

------------------------------------------------------------
          Begin self-consistency iteration #    1

  Date     :  20150727, Time     :  130453.896
------------------------------------------------------------
  Evaluating new KS density.
  Integration grid: deviation in total charge (<rho> - N_e) =   1.421085E-14
  Pulay mixing of updated and previous charge densities.

  Evaluating partitioned Hartree potential by multipole expansion.
  | Analytical far-field extrapolation by fixed multipoles:
  | Hartree multipole sum: apparent total charge =  -0.277462E-06
  Summing up the Hartree potential.
  Time summed over all CPUs for potential: real work        0.570 s, elapsed        0.576 s
  | RMS charge density error from multipole expansion :   0.108921E-02

  Integrating Hamiltonian matrix: batch-based integration.
  Time summed over all CPUs for integration: real work        1.285 s, elapsed        1.346 s

  Updating Kohn-Sham eigenvalues, eigenvectors, occupation numbers, and Fermi level.
  Solving generalized eigenproblem
  Updating Kohn-Sham eigenvalues and eigenfunctions.
  Solving real generalised eigenvalue problem by standard LAPACK (fast)
  Determining occupation numbers for Kohn-Sham eigenstates.
  | Chemical potential (Fermi level) in eV                 : -.28079097E+01
  | Error in electron count due to remaining E_F inaccuracy: 0.23060451E-08
  | Maximum occupation number of highest empty state:  0.00E+00

  Writing Kohn-Sham eigenvalues.

  State    Occupation    Eigenvalue [Ha]    Eigenvalue [eV]
      1       2.00000         -19.013923         -517.39518
      2       2.00000         -18.973301         -516.28979
      3       2.00000          -1.095738          -29.81656
      4       2.00000          -1.063329          -28.93466
      5       2.00000          -0.612085          -16.65568
      6       2.00000          -0.607548          -16.53222
      7       2.00000          -0.579304          -15.76366
      8       2.00000          -0.465667          -12.67143
      9       2.00000          -0.460259          -12.52428
     10       2.00000          -0.396064          -10.77745
     11       1.00000          -0.103189           -2.80791
     12       0.00000          -0.055742           -1.51682
     13       0.00000          -0.028517           -0.77597
     14       0.00000          -0.017143           -0.46648
     15       0.00000           0.010132            0.27571
     16       0.00000           0.071511            1.94592
     17       0.00000           0.079021            2.15027
     18       0.00000           0.088370            2.40467
     19       0.00000           0.111948            3.04625
     20       0.00000           0.124675            3.39257
     21       0.00000           0.129978            3.53687
     22       0.00000           0.138613            3.77184
     23       0.00000           0.199574            5.43068
     24       0.00000           0.214653            5.84102
     25       0.00000           0.233081            6.34245
     26       0.00000           0.240953            6.55666
     27       0.00000           0.320155            8.71187
     28       0.00000           0.346233            9.42148
     29       0.00000           0.355954            9.68599
     30       0.00000           0.377658           10.27660
     31       0.00000           0.382075           10.39680
     32       0.00000           0.401377           10.92202
     33       0.00000           0.428651           11.66419
     34       0.00000           0.453542           12.34151
     35       0.00000           0.481089           13.09110
     36       0.00000           0.501494           13.64635
     37       0.00000           0.556499           15.14312
     38       0.00000           0.712679           19.39298
     39       0.00000           0.731287           19.89932

  Highest occupied state (VBM) at     -2.80790969 eV
  | Occupation number:      1.00000000

  Lowest unoccupied state (CBM) at    -1.51682283 eV
  | Occupation number:      0.00000000

  Overall HOMO-LUMO gap:      1.29108686 eV.

  Total energy components:
  | Sum of eigenvalues            :         -86.63762600 Ha       -2357.52975329 eV
  | XC energy correction          :         -18.63075832 Ha        -506.96872821 eV
  | XC potential correction       :          23.80927997 Ha         647.88347186 eV
  | Free-atom electrostatic energy:         -71.44480209 Ha       -1944.11198026 eV
  | Hartree energy correction     :          -0.73207707 Ha         -19.92083077 eV
  | van der Waals energy corr.    :           0.00000000 Ha           0.00000000 eV
  | Entropy correction            :          -0.00010367 Ha          -0.00282095 eV
  | ---------------------------
  | Total energy                  :        -153.63598352 Ha       -4180.64782068 eV
  | Total energy, T -> 0          :        -153.63608719 Ha       -4180.65064163 eV  <-- do not rely on this value for anything but (periodic) metals
  | Electronic free energy        :        -153.63619086 Ha       -4180.65346257 eV

  Derived energy quantities:
  | Kinetic energy                :         152.78822710 Ha        4157.57919458 eV
  | Electrostatic energy          :        -287.79345230 Ha       -7831.25828705 eV
  | Energy correction for multipole
  | error in Hartree potential    :           0.00042660 Ha           0.01160833 eV
  | Sum of eigenvalues per atom                           :        -336.78996476 eV
  | Total energy (T->0) per atom                          :        -597.23580595 eV  <-- do not rely on this value for anything but (periodic) metals
  | Electronic free energy per atom                       :        -597.23620894 eV

  Self-consistency convergence accuracy:
  | Change of charge density      : 0.3957E+00
  | Change of sum of eigenvalues  : 0.2049E+02 eV
  | Change of total energy        : 0.1267E+01 eV

  End self-consistency iteration #     1       :  max(cpu_time)    wall_clock(cpu1)
  | Time for this iteration                    :        0.378 s           0.378 s
  | Charge density update                      :        0.123 s           0.123 s
  | Density mixing                             :        0.001 s           0.002 s
  | Hartree multipole update                   :        0.003 s           0.002 s
  | Hartree multipole summation                :        0.072 s           0.073 s
  | Integration                                :        0.169 s           0.169 s
  | Solution of K.-S. eqns.                    :        0.009 s           0.008 s
  | Total energy evaluation                    :        0.000 s           0.000 s
------------------------------------------------------------

------------------------------------------------------------
          Begin self-consistency iteration #    2

  Date     :  20150727, Time     :  130454.274
------------------------------------------------------------
  Evaluating new KS density.
  Integration grid: deviation in total charge (<rho> - N_e) =   2.306052E-09
  Pulay mixing of updated and previous charge densities.

  Evaluating partitioned Hartree potential by multipole expansion.
  | Analytical far-field extrapolation by fixed multipoles:
  | Hartree multipole sum: apparent total charge =  -0.159098E-05
  Summing up the Hartree potential.
  Time summed over all CPUs for potential: real work        0.570 s, elapsed        0.576 s
  | RMS charge density error from multipole expansion :   0.439651E-02

  Integrating Hamiltonian matrix: batch-based integration.
  Time summed over all CPUs for integration: real work        1.288 s, elapsed        1.348 s

  Updating Kohn-Sham eigenvalues, eigenvectors, occupation numbers, and Fermi level.
  Solving generalized eigenproblem
  Updating Kohn-Sham eigenvalues and eigenfunctions.
  Solving real generalised eigenvalue problem by standard LAPACK (fast)
  Determining occupation numbers for Kohn-Sham eigenstates.
  | Chemical potential (Fermi level) in eV                 : -.24977607E+01
  | Error in electron count due to remaining E_F inaccuracy: 0.18373925E-09
  | Maximum occupation number of highest empty state:  0.00E+00

  Highest occupied state (VBM) at     -2.49776071 eV
  | Occupation number:      1.00000000

  Lowest unoccupied state (CBM) at    -1.07297563 eV
  | Occupation number:      0.00000000

  Overall HOMO-LUMO gap:      1.42478508 eV.

  Total energy components:
  | Sum of eigenvalues            :         -84.87215856 Ha       -2309.48893999 eV
  | XC energy correction          :         -18.83674555 Ha        -512.57392581 eV
  | XC potential correction       :          24.07802085 Ha         655.19628336 eV
  | Free-atom electrostatic energy:         -71.44480209 Ha       -1944.11198026 eV
  | Hartree energy correction     :          -2.50806601 Ha         -68.24794855 eV
  | van der Waals energy corr.    :           0.00000000 Ha           0.00000000 eV
  | Entropy correction            :          -0.00010367 Ha          -0.00282095 eV
  | ---------------------------
  | Total energy                  :        -153.58375136 Ha       -4179.22651125 eV
  | Total energy, T -> 0          :        -153.58385503 Ha       -4179.22933220 eV  <-- do not rely on this value for anything but (periodic) metals
  | Electronic free energy        :        -153.58395870 Ha       -4179.23215315 eV

  Derived energy quantities:
  | Kinetic energy                :         153.86641735 Ha        4186.91824419 eV
  | Electrostatic energy          :        -288.61342317 Ha       -7853.57082964 eV
  | Energy correction for multipole
  | error in Hartree potential    :           0.00140081 Ha           0.03811805 eV
  | Sum of eigenvalues per atom                           :        -329.92699143 eV
  | Total energy (T->0) per atom                          :        -597.03276174 eV  <-- do not rely on this value for anything but (periodic) metals
  | Electronic free energy per atom                       :        -597.03316474 eV

  Self-consistency convergence accuracy:
  | Change of charge density      : 0.3010E+00
  | Change of sum of eigenvalues  : 0.4804E+02 eV
  | Change of total energy        : 0.1421E+01 eV

  End self-consistency iteration #     2       :  max(cpu_time)    wall_clock(cpu1)
  | Time for this iteration                    :        0.377 s           0.376 s
  | Charge density update                      :        0.121 s           0.121 s
  | Density mixing                             :        0.002 s           0.002 s
  | Hartree multipole update                   :        0.002 s           0.003 s
  | Hartree multipole summation                :        0.073 s           0.072 s
  | Integration                                :        0.169 s           0.169 s
  | Solution of K.-S. eqns.                    :        0.008 s           0.009 s
  | Total energy evaluation                    :        0.000 s           0.000 s
------------------------------------------------------------

------------------------------------------------------------
          Begin self-consistency iteration #    3

  Date     :  20150727, Time     :  130454.651
------------------------------------------------------------
  Evaluating new KS density.
  Integration grid: deviation in total charge (<rho> - N_e) =   1.837535E-10
  Pulay mixing of updated and previous charge densities.

  Evaluating partitioned Hartree potential by multipole expansion.
  | Analytical far-field extrapolation by fixed multipoles:
  | Hartree multipole sum: apparent total charge =  -0.155711E-05
  Summing up the Hartree potential.
  Time summed over all CPUs for potential: real work        0.570 s, elapsed        0.576 s
  | RMS charge density error from multipole expansion :   0.875865E-02

  Integrating Hamiltonian matrix: batch-based integration.
  Time summed over all CPUs for integration: real work        1.289 s, elapsed        1.343 s

  Updating Kohn-Sham eigenvalues, eigenvectors, occupation numbers, and Fermi level.
  Solving generalized eigenproblem
  Updating Kohn-Sham eigenvalues and eigenfunctions.
  Solving real generalised eigenvalue problem by standard LAPACK (fast)
  Determining occupation numbers for Kohn-Sham eigenstates.
  | Chemical potential (Fermi level) in eV                 : -.26215297E+01
  | Error in electron count due to remaining E_F inaccuracy: 0.76879658E-09
  | Maximum occupation number of highest empty state:  0.00E+00

  Highest occupied state (VBM) at     -2.62152968 eV
  | Occupation number:      1.00000000

  Lowest unoccupied state (CBM) at    -1.00819897 eV
  | Occupation number:      0.00000000

  Overall HOMO-LUMO gap:      1.61333071 eV.

  Total energy components:
  | Sum of eigenvalues            :         -85.11704391 Ha       -2316.15260922 eV
  | XC energy correction          :         -18.81547135 Ha        -511.99502538 eV
  | XC potential correction       :          24.04653711 Ha         654.33956727 eV
  | Free-atom electrostatic energy:         -71.44480209 Ha       -1944.11198026 eV
  | Hartree energy correction     :          -2.25215814 Ha         -61.28434115 eV
  | van der Waals energy corr.    :           0.00000000 Ha           0.00000000 eV
  | Entropy correction            :          -0.00010367 Ha          -0.00282095 eV
  | ---------------------------
  | Total energy                  :        -153.58293837 Ha       -4179.20438873 eV
  | Total energy, T -> 0          :        -153.58304204 Ha       -4179.20720968 eV  <-- do not rely on this value for anything but (periodic) metals
  | Electronic free energy        :        -153.58314571 Ha       -4179.21003063 eV

  Derived energy quantities:
  | Kinetic energy                :         153.16580482 Ha        4167.85360710 eV
  | Electrostatic energy          :        -287.93327184 Ha       -7835.06297045 eV
  | Energy correction for multipole
  | error in Hartree potential    :           0.00132526 Ha           0.03606212 eV
  | Sum of eigenvalues per atom                           :        -330.87894417 eV
  | Total energy (T->0) per atom                          :        -597.02960138 eV  <-- do not rely on this value for anything but (periodic) metals
  | Electronic free energy per atom                       :        -597.03000438 eV

  Self-consistency convergence accuracy:
  | Change of charge density      : 0.1503E+00
  | Change of sum of eigenvalues  : -.6664E+01 eV
  | Change of total energy        : 0.2212E-01 eV

  End self-consistency iteration #     3       :  max(cpu_time)    wall_clock(cpu1)
  | Time for this iteration                    :        0.376 s           0.376 s
  | Charge density update                      :        0.120 s           0.120 s
  | Density mixing                             :        0.003 s           0.003 s
  | Hartree multipole update                   :        0.002 s           0.003 s
  | Hartree multipole summation                :        0.073 s           0.072 s
  | Integration                                :        0.168 s           0.169 s
  | Solution of K.-S. eqns.                    :        0.009 s           0.008 s
  | Total energy evaluation                    :        0.000 s           0.001 s
------------------------------------------------------------

------------------------------------------------------------
          Begin self-consistency iteration #    4

  Date     :  20150727, Time     :  130455.027
------------------------------------------------------------
  Evaluating new KS density.
  Integration grid: deviation in total charge (<rho> - N_e) =   7.688037E-10
  Pulay mixing of updated and previous charge densities.

  Evaluating partitioned Hartree potential by multipole expansion.
  | Analytical far-field extrapolation by fixed multipoles:
  | Hartree multipole sum: apparent total charge =  -0.189079E-05
  Summing up the Hartree potential.
  Time summed over all CPUs for potential: real work        0.570 s, elapsed        0.576 s
  | RMS charge density error from multipole expansion :   0.120139E-01

  Integrating Hamiltonian matrix: batch-based integration.
  Time summed over all CPUs for integration: real work        1.281 s, elapsed        1.343 s

  Updating Kohn-Sham eigenvalues, eigenvectors, occupation numbers, and Fermi level.
  Solving generalized eigenproblem
  Updating Kohn-Sham eigenvalues and eigenfunctions.
  Solving real generalised eigenvalue problem by standard LAPACK (fast)
  Determining occupation numbers for Kohn-Sham eigenstates.
  | Chemical potential (Fermi level) in eV                 : -.25524241E+01
  | Error in electron count due to remaining E_F inaccuracy: 0.12789769E-12
  | Maximum occupation number of highest empty state:  0.00E+00

  Highest occupied state (VBM) at     -2.55242414 eV
  | Occupation number:      1.00000000

  Lowest unoccupied state (CBM) at    -0.84902133 eV
  | Occupation number:      0.00000000

  Overall HOMO-LUMO gap:      1.70340281 eV.

  Total energy components:
  | Sum of eigenvalues            :         -84.56480340 Ha       -2301.12538046 eV
  | XC energy correction          :         -18.89328234 Ha        -514.11237023 eV
  | XC potential correction       :          24.14662470 Ha         657.06308907 eV
  | Free-atom electrostatic energy:         -71.44480209 Ha       -1944.11198026 eV
  | Hartree energy correction     :          -2.82446496 Ha         -76.85760191 eV
  | van der Waals energy corr.    :           0.00000000 Ha           0.00000000 eV
  | Entropy correction            :          -0.00010367 Ha          -0.00282095 eV
  | ---------------------------
  | Total energy                  :        -153.58072809 Ha       -4179.14424378 eV
  | Total energy, T -> 0          :        -153.58083176 Ha       -4179.14706473 eV  <-- do not rely on this value for anything but (periodic) metals
  | Electronic free energy        :        -153.58093542 Ha       -4179.14988568 eV

  Derived energy quantities:
  | Kinetic energy                :         153.24002527 Ha        4169.87324844 eV
  | Electrostatic energy          :        -287.92747102 Ha       -7834.90512199 eV
  | Energy correction for multipole
  | error in Hartree potential    :           0.00166096 Ha           0.04519698 eV
  | Sum of eigenvalues per atom                           :        -328.73219721 eV
  | Total energy (T->0) per atom                          :        -597.02100925 eV  <-- do not rely on this value for anything but (periodic) metals
  | Electronic free energy per atom                       :        -597.02141224 eV

  Self-consistency convergence accuracy:
  | Change of charge density      : 0.7449E-01
  | Change of sum of eigenvalues  : 0.1503E+02 eV
  | Change of total energy        : 0.6014E-01 eV

  End self-consistency iteration #     4       :  max(cpu_time)    wall_clock(cpu1)
  | Time for this iteration                    :        0.377 s           0.376 s
  | Charge density update                      :        0.121 s           0.120 s
  | Density mixing                             :        0.003 s           0.004 s
  | Hartree multipole update                   :        0.003 s           0.003 s
  | Hartree multipole summation                :        0.073 s           0.072 s
  | Integration                                :        0.168 s           0.169 s
  | Solution of K.-S. eqns.                    :        0.008 s           0.008 s
  | Total energy evaluation                    :        0.000 s           0.000 s
------------------------------------------------------------

------------------------------------------------------------
          Begin self-consistency iteration #    5

  Date     :  20150727, Time     :  130455.404
------------------------------------------------------------
  Evaluating new KS density.
  Integration grid: deviation in total charge (<rho> - N_e) =   1.456613E-13
  Pulay mixing of updated and previous charge densities.

  Evaluating partitioned Hartree potential by multipole expansion.
  | Analytical far-field extrapolation by fixed multipoles:
  | Hartree multipole sum: apparent total charge =  -0.177722E-05
  Summing up the Hartree potential.
  Time summed over all CPUs for potential: real work        0.570 s, elapsed        0.576 s
  | RMS charge density error from multipole expansion :   0.117384E-01

  Integrating Hamiltonian matrix: batch-based integration.
  Time summed over all CPUs for integration: real work        1.283 s, elapsed        1.345 s

  Updating Kohn-Sham eigenvalues, eigenvectors, occupation numbers, and Fermi level.
  Solving generalized eigenproblem
  Updating Kohn-Sham eigenvalues and eigenfunctions.
  Solving real generalised eigenvalue problem by standard LAPACK (fast)
  Determining occupation numbers for Kohn-Sham eigenstates.
  | Chemical potential (Fermi level) in eV                 : -.25406231E+01
  | Error in electron count due to remaining E_F inaccuracy: -.92257970E-08
  | Maximum occupation number of highest empty state:  0.00E+00

  Highest occupied state (VBM) at     -7.03810970 eV
  | Occupation number:      2.00000000

  Lowest unoccupied state (CBM) at    -2.54062314 eV
  | Occupation number:      0.99999999

  Overall HOMO-LUMO gap:      4.49748657 eV.

  Total energy components:
  | Sum of eigenvalues            :         -84.63884908 Ha       -2303.14026598 eV
  | XC energy correction          :         -18.88323033 Ha        -513.83884110 eV
  | XC potential correction       :          24.13351588 Ha         656.70637997 eV
  | Free-atom electrostatic energy:         -71.44480209 Ha       -1944.11198026 eV
  | Hartree energy correction     :          -2.74699124 Ha         -74.74943493 eV
  | van der Waals energy corr.    :           0.00000000 Ha           0.00000000 eV
  | Entropy correction            :          -0.00010367 Ha          -0.00282095 eV
  | ---------------------------
  | Total energy                  :        -153.58035687 Ha       -4179.13414230 eV
  | Total energy, T -> 0          :        -153.58046053 Ha       -4179.13696325 eV  <-- do not rely on this value for anything but (periodic) metals
  | Electronic free energy        :        -153.58056420 Ha       -4179.13978420 eV

  Derived energy quantities:
  | Kinetic energy                :         153.23943217 Ha        4169.85710945 eV
  | Electrostatic energy          :        -287.93655871 Ha       -7835.15241065 eV
  | Energy correction for multipole
  | error in Hartree potential    :           0.00170480 Ha           0.04639004 eV
  | Sum of eigenvalues per atom                           :        -329.02003800 eV
  | Total energy (T->0) per atom                          :        -597.01956618 eV  <-- do not rely on this value for anything but (periodic) metals
  | Electronic free energy per atom                       :        -597.01996917 eV

  Self-consistency convergence accuracy:
  | Change of charge density      : 0.2142E-01
  | Change of sum of eigenvalues  : -.2015E+01 eV
  | Change of total energy        : 0.1010E-01 eV

  End self-consistency iteration #     5       :  max(cpu_time)    wall_clock(cpu1)
  | Time for this iteration                    :        0.377 s           0.377 s
  | Charge density update                      :        0.120 s           0.120 s
  | Density mixing                             :        0.004 s           0.004 s
  | Hartree multipole update                   :        0.002 s           0.003 s
  | Hartree multipole summation                :        0.073 s           0.072 s
  | Integration                                :        0.168 s           0.169 s
  | Solution of K.-S. eqns.                    :        0.009 s           0.008 s
  | Total energy evaluation                    :        0.000 s           0.001 s
------------------------------------------------------------

------------------------------------------------------------
          Begin self-consistency iteration #    6

  Date     :  20150727, Time     :  130455.781
------------------------------------------------------------
  Evaluating new KS density.
  Integration grid: deviation in total charge (<rho> - N_e) =  -9.225786E-09
  Pulay mixing of updated and previous charge densities.

  Evaluating partitioned Hartree potential by multipole expansion.
  | Analytical far-field extrapolation by fixed multipoles:
  | Hartree multipole sum: apparent total charge =  -0.176685E-05
  Summing up the Hartree potential.
  Time summed over all CPUs for potential: real work        0.570 s, elapsed        0.576 s
  | RMS charge density error from multipole expansion :   0.117724E-01

  Integrating Hamiltonian matrix: batch-based integration.
  Time summed over all CPUs for integration: real work        1.284 s, elapsed        1.345 s

  Updating Kohn-Sham eigenvalues, eigenvectors, occupation numbers, and Fermi level.
  Solving generalized eigenproblem
  Updating Kohn-Sham eigenvalues and eigenfunctions.
  Solving real generalised eigenvalue problem by standard LAPACK (fast)
  Determining occupation numbers for Kohn-Sham eigenstates.
  | Chemical potential (Fermi level) in eV                 : -.25426240E+01
  | Error in electron count due to remaining E_F inaccuracy: -.38553942E-08
  | Maximum occupation number of highest empty state:  0.00E+00

  Highest occupied state (VBM) at     -7.05577941 eV
  | Occupation number:      2.00000000

  Lowest unoccupied state (CBM) at    -2.54262399 eV
  | Occupation number:      1.00000000

  Overall HOMO-LUMO gap:      4.51315542 eV.

  Total energy components:
  | Sum of eigenvalues            :         -84.65061573 Ha       -2303.46045272 eV
  | XC energy correction          :         -18.88197477 Ha        -513.80467569 eV
  | XC potential correction       :          24.13182474 Ha         656.66036158 eV
  | Free-atom electrostatic energy:         -71.44480209 Ha       -1944.11198026 eV
  | Hartree energy correction     :          -2.73477713 Ha         -74.41707197 eV
  | van der Waals energy corr.    :           0.00000000 Ha           0.00000000 eV
  | Entropy correction            :          -0.00010367 Ha          -0.00282095 eV
  | ---------------------------
  | Total energy                  :        -153.58034499 Ha       -4179.13381906 eV
  | Total energy, T -> 0          :        -153.58044865 Ha       -4179.13664000 eV  <-- do not rely on this value for anything but (periodic) metals
  | Electronic free energy        :        -153.58055232 Ha       -4179.13946095 eV

  Derived energy quantities:
  | Kinetic energy                :         153.23322596 Ha        4169.68822966 eV
  | Electrostatic energy          :        -287.93159617 Ha       -7835.01737303 eV
  | Energy correction for multipole
  | error in Hartree potential    :           0.00171757 Ha           0.04673739 eV
  | Sum of eigenvalues per atom                           :        -329.06577896 eV
  | Total energy (T->0) per atom                          :        -597.01952000 eV  <-- do not rely on this value for anything but (periodic) metals
  | Electronic free energy per atom                       :        -597.01992299 eV

  Self-consistency convergence accuracy:
  | Change of charge density      : 0.7230E-02
  | Change of sum of eigenvalues  : -.3202E+00 eV
  | Change of total energy        : 0.3232E-03 eV

  End self-consistency iteration #     6       :  max(cpu_time)    wall_clock(cpu1)
  | Time for this iteration                    :        0.378 s           0.377 s
  | Charge density update                      :        0.121 s           0.120 s
  | Density mixing                             :        0.004 s           0.005 s
  | Hartree multipole update                   :        0.002 s           0.003 s
  | Hartree multipole summation                :        0.072 s           0.072 s
  | Integration                                :        0.168 s           0.169 s
  | Solution of K.-S. eqns.                    :        0.009 s           0.008 s
  | Total energy evaluation                    :        0.000 s           0.000 s
------------------------------------------------------------

------------------------------------------------------------
          Begin self-consistency iteration #    7

  Date     :  20150727, Time     :  130456.159
------------------------------------------------------------
  Evaluating new KS density.
  Integration grid: deviation in total charge (<rho> - N_e) =  -3.855401E-09
  Pulay mixing of updated and previous charge densities.

  Evaluating partitioned Hartree potential by multipole expansion.
  | Analytical far-field extrapolation by fixed multipoles:
  | Hartree multipole sum: apparent total charge =  -0.172492E-05
  Summing up the Hartree potential.
  Time summed over all CPUs for potential: real work        0.570 s, elapsed        0.576 s
  | RMS charge density error from multipole expansion :   0.118097E-01

  Integrating Hamiltonian matrix: batch-based integration.
  Time summed over all CPUs for integration: real work        1.283 s, elapsed        1.351 s

  Updating Kohn-Sham eigenvalues, eigenvectors, occupation numbers, and Fermi level.
  Solving generalized eigenproblem
  Updating Kohn-Sham eigenvalues and eigenfunctions.
  Solving real generalised eigenvalue problem by standard LAPACK (fast)
  Determining occupation numbers for Kohn-Sham eigenstates.
  | Chemical potential (Fermi level) in eV                 : -.25400423E+01
  | Error in electron count due to remaining E_F inaccuracy: 0.00000000E+00
  | Maximum occupation number of highest empty state:  0.00E+00

  Highest occupied state (VBM) at     -2.54004231 eV
  | Occupation number:      1.00000000

  Lowest unoccupied state (CBM) at    -2.54004231 eV
  | Occupation number:      1.00000000

  Overall HOMO-LUMO gap:      0.00000000 eV.

  Total energy components:
  | Sum of eigenvalues            :         -84.68937742 Ha       -2304.51521217 eV
  | XC energy correction          :         -18.87766522 Ha        -513.68740690 eV
  | XC potential correction       :          24.12601930 Ha         656.50238773 eV
  | Free-atom electrostatic energy:         -71.44480209 Ha       -1944.11198026 eV
  | Hartree energy correction     :          -2.69448529 Ha         -73.32067539 eV
  | van der Waals energy corr.    :           0.00000000 Ha           0.00000000 eV
  | Entropy correction            :          -0.00010367 Ha          -0.00282095 eV
  | ---------------------------
  | Total energy                  :        -153.58031073 Ha       -4179.13288699 eV
  | Total energy, T -> 0          :        -153.58041440 Ha       -4179.13570793 eV  <-- do not rely on this value for anything but (periodic) metals
  | Electronic free energy        :        -153.58051807 Ha       -4179.13852888 eV

  Derived energy quantities:
  | Kinetic energy                :         153.25540849 Ha        4170.29184707 eV
  | Electrostatic energy          :        -287.95805400 Ha       -7835.73732716 eV
  | Energy correction for multipole
  | error in Hartree potential    :           0.00185190 Ha           0.05039280 eV
  | Sum of eigenvalues per atom                           :        -329.21645888 eV
  | Total energy (T->0) per atom                          :        -597.01938685 eV  <-- do not rely on this value for anything but (periodic) metals
  | Electronic free energy per atom                       :        -597.01978984 eV

  Self-consistency convergence accuracy:
  | Change of charge density      : 0.5975E-02
  | Change of sum of eigenvalues  : -.1055E+01 eV
  | Change of total energy        : 0.9321E-03 eV

  End self-consistency iteration #     7       :  max(cpu_time)    wall_clock(cpu1)
  | Time for this iteration                    :        0.379 s           0.379 s
  | Charge density update                      :        0.120 s           0.120 s
  | Density mixing                             :        0.006 s           0.005 s
  | Hartree multipole update                   :        0.002 s           0.003 s
  | Hartree multipole summation                :        0.073 s           0.072 s
  | Integration                                :        0.169 s           0.170 s
  | Solution of K.-S. eqns.                    :        0.009 s           0.008 s
  | Total energy evaluation                    :        0.000 s           0.001 s
------------------------------------------------------------

------------------------------------------------------------
          Begin self-consistency iteration #    8

  Date     :  20150727, Time     :  130456.538
------------------------------------------------------------
  Evaluating new KS density.
  Integration grid: deviation in total charge (<rho> - N_e) =   7.105427E-15
  Pulay mixing of updated and previous charge densities.

  Evaluating partitioned Hartree potential by multipole expansion.
  | Analytical far-field extrapolation by fixed multipoles:
  | Hartree multipole sum: apparent total charge =  -0.171850E-05
  Summing up the Hartree potential.
  Time summed over all CPUs for potential: real work        0.570 s, elapsed        0.575 s
  | RMS charge density error from multipole expansion :   0.118121E-01

  Integrating Hamiltonian matrix: batch-based integration.
  Time summed over all CPUs for integration: real work        1.280 s, elapsed        1.339 s

  Updating Kohn-Sham eigenvalues, eigenvectors, occupation numbers, and Fermi level.
  Solving generalized eigenproblem
  Updating Kohn-Sham eigenvalues and eigenfunctions.
  Solving real generalised eigenvalue problem by standard LAPACK (fast)
  Determining occupation numbers for Kohn-Sham eigenstates.
  | Chemical potential (Fermi level) in eV                 : -.25425686E+01
  | Error in electron count due to remaining E_F inaccuracy: 0.00000000E+00
  | Maximum occupation number of highest empty state:  0.00E+00

  Highest occupied state (VBM) at     -2.54256859 eV
  | Occupation number:      1.00000000

  Lowest unoccupied state (CBM) at    -2.54256859 eV
  | Occupation number:      1.00000000

  Overall HOMO-LUMO gap:      0.00000000 eV.

  Total energy components:
  | Sum of eigenvalues            :         -84.69463093 Ha       -2304.65816726 eV
  | XC energy correction          :         -18.87705806 Ha        -513.67088507 eV
  | XC potential correction       :          24.12521236 Ha         656.48042974 eV
  | Free-atom electrostatic energy:         -71.44480209 Ha       -1944.11198026 eV
  | Hartree energy correction     :          -2.68903197 Ha         -73.17228288 eV
  | van der Waals energy corr.    :           0.00000000 Ha           0.00000000 eV
  | Entropy correction            :          -0.00010367 Ha          -0.00282095 eV
  | ---------------------------
  | Total energy                  :        -153.58031069 Ha       -4179.13288574 eV
  | Total energy, T -> 0          :        -153.58041436 Ha       -4179.13570668 eV  <-- do not rely on this value for anything but (periodic) metals
  | Electronic free energy        :        -153.58051802 Ha       -4179.13852763 eV

  Derived energy quantities:
  | Kinetic energy                :         153.25653346 Ha        4170.32245904 eV
  | Electrostatic energy          :        -287.95978609 Ha       -7835.78445970 eV
  | Energy correction for multipole
  | error in Hartree potential    :           0.00186144 Ha           0.05065246 eV
  | Sum of eigenvalues per atom                           :        -329.23688104 eV
  | Total energy (T->0) per atom                          :        -597.01938667 eV  <-- do not rely on this value for anything but (periodic) metals
  | Electronic free energy per atom                       :        -597.01978966 eV

  Self-consistency convergence accuracy:
  | Change of charge density      : 0.7522E-03
  | Change of sum of eigenvalues  : -.1430E+00 eV
  | Change of total energy        : 0.1251E-05 eV

  End self-consistency iteration #     8       :  max(cpu_time)    wall_clock(cpu1)
  | Time for this iteration                    :        0.378 s           0.378 s
  | Charge density update                      :        0.120 s           0.120 s
  | Density mixing                             :        0.007 s           0.006 s
  | Hartree multipole update                   :        0.002 s           0.003 s
  | Hartree multipole summation                :        0.073 s           0.072 s
  | Integration                                :        0.167 s           0.168 s
  | Solution of K.-S. eqns.                    :        0.009 s           0.008 s
  | Total energy evaluation                    :        0.000 s           0.001 s
------------------------------------------------------------

------------------------------------------------------------
          Begin self-consistency iteration #    9

  Date     :  20150727, Time     :  130456.916
------------------------------------------------------------
  Evaluating new KS density.
  Integration grid: deviation in total charge (<rho> - N_e) =   1.065814E-14
  Pulay mixing of updated and previous charge densities.

  Evaluating partitioned Hartree potential by multipole expansion.
  | Analytical far-field extrapolation by fixed multipoles:
  | Hartree multipole sum: apparent total charge =  -0.171776E-05
  Summing up the Hartree potential.
  Time summed over all CPUs for potential: real work        0.570 s, elapsed        0.576 s
  | RMS charge density error from multipole expansion :   0.118068E-01

  Integrating Hamiltonian matrix: batch-based integration.
  Time summed over all CPUs for integration: real work        1.281 s, elapsed        1.340 s

  Updating Kohn-Sham eigenvalues, eigenvectors, occupation numbers, and Fermi level.
  Solving generalized eigenproblem
  Updating Kohn-Sham eigenvalues and eigenfunctions.
  Solving real generalised eigenvalue problem by standard LAPACK (fast)
  Determining occupation numbers for Kohn-Sham eigenstates.
  | Chemical potential (Fermi level) in eV                 : -.25446041E+01
  | Error in electron count due to remaining E_F inaccuracy: 0.00000000E+00
  | Maximum occupation number of highest empty state:  0.00E+00

  Highest occupied state (VBM) at     -2.54460414 eV
  | Occupation number:      1.00000000

  Lowest unoccupied state (CBM) at    -2.54460414 eV
  | Occupation number:      1.00000000

  Overall HOMO-LUMO gap:      0.00000000 eV.

  Total energy components:
  | Sum of eigenvalues            :         -84.69382748 Ha       -2304.63630436 eV
  | XC energy correction          :         -18.87713057 Ha        -513.67285819 eV
  | XC potential correction       :          24.12531439 Ha         656.48320593 eV
  | Free-atom electrostatic energy:         -71.44480209 Ha       -1944.11198026 eV
  | Hartree energy correction     :          -2.68986472 Ha         -73.19494303 eV
  | van der Waals energy corr.    :           0.00000000 Ha           0.00000000 eV
  | Entropy correction            :          -0.00010367 Ha          -0.00282095 eV
  | ---------------------------
  | Total energy                  :        -153.58031047 Ha       -4179.13287992 eV
  | Total energy, T -> 0          :        -153.58041414 Ha       -4179.13570086 eV  <-- do not rely on this value for anything but (periodic) metals
  | Electronic free energy        :        -153.58051781 Ha       -4179.13852181 eV

  Derived energy quantities:
  | Kinetic energy                :         153.25767794 Ha        4170.35360213 eV
  | Electrostatic energy          :        -287.96085785 Ha       -7835.81362386 eV
  | Energy correction for multipole
  | error in Hartree potential    :           0.00185932 Ha           0.05059465 eV
  | Sum of eigenvalues per atom                           :        -329.23375777 eV
  | Total energy (T->0) per atom                          :        -597.01938584 eV  <-- do not rely on this value for anything but (periodic) metals
  | Electronic free energy per atom                       :        -597.01978883 eV

  Self-consistency convergence accuracy:
  | Change of charge density      : 0.3809E-03
  | Change of sum of eigenvalues  : 0.2186E-01 eV
  | Change of total energy        : 0.5819E-05 eV

  End self-consistency iteration #     9       :  max(cpu_time)    wall_clock(cpu1)
  | Time for this iteration                    :        0.380 s           0.379 s
  | Charge density update                      :        0.121 s           0.120 s
  | Density mixing                             :        0.007 s           0.007 s
  | Hartree multipole update                   :        0.002 s           0.003 s
  | Hartree multipole summation                :        0.073 s           0.072 s
  | Integration                                :        0.168 s           0.168 s
  | Solution of K.-S. eqns.                    :        0.008 s           0.008 s
  | Total energy evaluation                    :        0.001 s           0.000 s
------------------------------------------------------------

------------------------------------------------------------
          Begin self-consistency iteration #   10

  Date     :  20150727, Time     :  130457.295
------------------------------------------------------------
  Evaluating new KS density.
  Integration grid: deviation in total charge (<rho> - N_e) =  -7.105427E-15
  Pulay mixing of updated and previous charge densities.

  Evaluating partitioned Hartree potential by multipole expansion.
  | Analytical far-field extrapolation by fixed multipoles:
  | Hartree multipole sum: apparent total charge =  -0.171663E-05
  Summing up the Hartree potential.
  Time summed over all CPUs for potential: real work        0.570 s, elapsed        0.576 s
  | RMS charge density error from multipole expansion :   0.118064E-01

  Integrating Hamiltonian matrix: batch-based integration.
  Time summed over all CPUs for integration: real work        1.280 s, elapsed        1.338 s

  Updating Kohn-Sham eigenvalues, eigenvectors, occupation numbers, and Fermi level.
  Solving generalized eigenproblem
  Updating Kohn-Sham eigenvalues and eigenfunctions.
  Solving real generalised eigenvalue problem by standard LAPACK (fast)
  Determining occupation numbers for Kohn-Sham eigenstates.
  | Chemical potential (Fermi level) in eV                 : -.25448759E+01
  | Error in electron count due to remaining E_F inaccuracy: 0.00000000E+00
  | Maximum occupation number of highest empty state:  0.00E+00

  Highest occupied state (VBM) at     -2.54487590 eV
  | Occupation number:      1.00000000

  Lowest unoccupied state (CBM) at    -2.54487590 eV
  | Occupation number:      1.00000000

  Overall HOMO-LUMO gap:      0.00000000 eV.

  Total energy components:
  | Sum of eigenvalues            :         -84.69405015 Ha       -2304.64236343 eV
  | XC energy correction          :         -18.87710209 Ha        -513.67208314 eV
  | XC potential correction       :          24.12527859 Ha         656.48223176 eV
  | Free-atom electrostatic energy:         -71.44480209 Ha       -1944.11198026 eV
  | Hartree energy correction     :          -2.68963476 Ha         -73.18868574 eV
  | van der Waals energy corr.    :           0.00000000 Ha           0.00000000 eV
  | Entropy correction            :          -0.00010367 Ha          -0.00282095 eV
  | ---------------------------
  | Total energy                  :        -153.58031051 Ha       -4179.13288081 eV
  | Total energy, T -> 0          :        -153.58041417 Ha       -4179.13570176 eV  <-- do not rely on this value for anything but (periodic) metals
  | Electronic free energy        :        -153.58051784 Ha       -4179.13852270 eV

  Derived energy quantities:
  | Kinetic energy                :         153.25767953 Ha        4170.35364514 eV
  | Electrostatic energy          :        -287.96088794 Ha       -7835.81444280 eV
  | Energy correction for multipole
  | error in Hartree potential    :           0.00185928 Ha           0.05059358 eV
  | Sum of eigenvalues per atom                           :        -329.23462335 eV
  | Total energy (T->0) per atom                          :        -597.01938597 eV  <-- do not rely on this value for anything but (periodic) metals
  | Electronic free energy per atom                       :        -597.01978896 eV

  Self-consistency convergence accuracy:
  | Change of charge density      : 0.1269E-03
  | Change of sum of eigenvalues  : -.6059E-02 eV
  | Change of total energy        : -.8911E-06 eV

  End self-consistency iteration #    10       :  max(cpu_time)    wall_clock(cpu1)
  | Time for this iteration                    :        0.379 s           0.380 s
  | Charge density update                      :        0.120 s           0.120 s
  | Density mixing                             :        0.008 s           0.007 s
  | Hartree multipole update                   :        0.002 s           0.002 s
  | Hartree multipole summation                :        0.073 s           0.073 s
  | Integration                                :        0.167 s           0.168 s
  | Solution of K.-S. eqns.                    :        0.009 s           0.008 s
  | Total energy evaluation                    :        0.000 s           0.001 s
------------------------------------------------------------

------------------------------------------------------------
          Begin self-consistency iteration #   11

  Date     :  20150727, Time     :  130457.675
------------------------------------------------------------
  Evaluating new KS density.
  Integration grid: deviation in total charge (<rho> - N_e) =  -7.105427E-15
  Pulay mixing of updated and previous charge densities.

  Evaluating partitioned Hartree potential by multipole expansion.
  | Analytical far-field extrapolation by fixed multipoles:
  | Hartree multipole sum: apparent total charge =  -0.171621E-05
  Summing up the Hartree potential.
  Time summed over all CPUs for potential: real work        0.570 s, elapsed        0.576 s
  | RMS charge density error from multipole expansion :   0.118069E-01

  Integrating Hamiltonian matrix: batch-based integration.
  Time summed over all CPUs for integration: real work        1.281 s, elapsed        1.340 s

[...]

  Highest occupied state (VBM) at     -2.54484655 eV
  | Occupation number:      1.00000000

  Lowest unoccupied state (CBM) at    -2.54484655 eV
  | Occupation number:      1.00000000

  Overall HOMO-LUMO gap:      0.00000000 eV.

  Self-consistency cycle converged.

  End self-consistency iteration #    14       :  max(cpu_time)    wall_clock(cpu1)
  | Time for this iteration                    :        0.978 s           0.978 s
  | Charge density & force component update    :        0.600 s           0.600 s
  | Density mixing                             :        0.008 s           0.008 s
  | Hartree multipole update                   :        0.003 s           0.003 s
  | Hartree multipole summation                :        0.189 s           0.189 s
  | Integration                                :        0.169 s           0.169 s
  | Solution of K.-S. eqns.                    :        0.008 s           0.008 s
  | Total energy evaluation                    :        0.001 s           0.001 s
------------------------------------------------------------
  Obtaining max. number of non-zero basis functions in each batch .
  Evaluating KS electron density on previously omitted grid points.
  Evaluating non-empirical van der Waals correction (Tkatchenko/Scheffler 2009).
  Performing Hirshfeld analysis of fragment charges and moments.
  ----------------------------------------------------------------------
  | Atom     1: O
  |   Hirshfeld charge        :     -0.12221468
  |   Free atom volume        :     23.95238533
  |   Hirshfeld volume        :     24.43430836
  |   Hirshfeld dipole vector :      0.01529676       0.02416497       0.02012008
  |   Hirshfeld dipole moment :      0.03496790
  |   Hirshfeld second moments:      0.03602063       0.00204080      -0.00877906
  |                                  0.00204080      -0.02141005      -0.02677004
  |                                 -0.00877906      -0.02677004       0.01266758
  ----------------------------------------------------------------------
  | Atom     2: H
  |   Hirshfeld charge        :      0.01788051
  |   Free atom volume        :     10.44207651
  |   Hirshfeld volume        :     16.42450739
  |   Hirshfeld dipole vector :      0.03516491      -0.03597502       0.01258161
  |   Hirshfeld dipole moment :      0.05185624
  |   Hirshfeld second moments:     -0.08373879       0.01761017       0.01096817
  |                                  0.01761017      -0.11155740      -0.00159805
  |                                  0.01096817      -0.00159805      -0.08055162
  ----------------------------------------------------------------------
  | Atom     3: H
  |   Hirshfeld charge        :      0.10022218
  |   Free atom volume        :     10.44207651
  |   Hirshfeld volume        :     12.87007676
  |   Hirshfeld dipole vector :      0.03661256       0.02041694       0.00670251
  |   Hirshfeld dipole moment :      0.04245297
  |   Hirshfeld second moments:     -0.00377196       0.00411788      -0.00466482
  |                                  0.00411788      -0.02100746       0.01218804
  |                                 -0.00466482       0.01218804      -0.00791932
  ----------------------------------------------------------------------
  | Atom     4: H
  |   Hirshfeld charge        :      0.06120745
  |   Free atom volume        :     10.44207651
  |   Hirshfeld volume        :     15.06871812
  |   Hirshfeld dipole vector :      0.01253220       0.00627933       0.00288609
  |   Hirshfeld dipole moment :      0.01431138
  |   Hirshfeld second moments:     -0.05117770       0.02258431       0.01052328
  |                                  0.02258431      -0.05555795      -0.00006006
  |                                  0.01052328      -0.00006006      -0.06191857
  ----------------------------------------------------------------------
  | Atom     5: O
  |   Hirshfeld charge        :     -0.31550199
  |   Free atom volume        :     23.95238533
  |   Hirshfeld volume        :     23.18198411
  |   Hirshfeld dipole vector :      0.01905166       0.02279192       0.07206135
  |   Hirshfeld dipole moment :      0.07794405
  |   Hirshfeld second moments:      0.02180052       0.05881262      -0.02585329
  |                                  0.05881262      -0.03023781      -0.00523057
  |                                 -0.02585329      -0.00523057      -0.01856572
  ----------------------------------------------------------------------
  | Atom     6: H
  |   Hirshfeld charge        :      0.14373799
  |   Free atom volume        :     10.44207651
  |   Hirshfeld volume        :      7.07382305
  |   Hirshfeld dipole vector :      0.10044828       0.07070023       0.03880370
  |   Hirshfeld dipole moment :      0.12881812
  |   Hirshfeld second moments:      0.10770944       0.01375482      -0.01615588
  |                                  0.01375482       0.09039869      -0.00821089
  |                                 -0.01615588      -0.00821089       0.10564551
  ----------------------------------------------------------------------
  | Atom     7: H
  |   Hirshfeld charge        :      0.11466362
  |   Free atom volume        :     10.44207651
  |   Hirshfeld volume        :      9.09248782
  |   Hirshfeld dipole vector :     -0.04952628      -0.01634883       0.09188703
  |   Hirshfeld dipole moment :      0.10565681
  |   Hirshfeld second moments:      0.05781885       0.00763300      -0.00261750
  |                                  0.00763300       0.05088268       0.01026516
  |                                 -0.00261750       0.01026516       0.07410075
  ----------------------------------------------------------------------


  Total energy components:
  | Sum of eigenvalues            :         -84.69396706 Ha       -2304.64010243 eV
  | XC energy correction          :         -18.87710084 Ha        -513.67204919 eV
  | XC potential correction       :          24.12527840 Ha         656.48222667 eV
  | Free-atom electrostatic energy:         -71.44480209 Ha       -1944.11198026 eV
  | Hartree energy correction     :          -2.68971895 Ha         -73.19097642 eV
  | van der Waals energy corr.    :          -0.00057180 Ha          -0.01555944 eV
  | Entropy correction            :          -0.00010367 Ha          -0.00282095 eV
  | ---------------------------
  | Total energy                  :        -153.58088234 Ha       -4179.14844108 eV
  | Total energy, T -> 0          :        -153.58098600 Ha       -4179.15126203 eV  <-- do not rely on this value for anything but (periodic) metals
  | Electronic free energy        :        -153.58108967 Ha       -4179.15408298 eV

  Derived energy quantities:
  | Kinetic energy                :         153.25758480 Ha        4170.35106753 eV
  | Electrostatic energy          :        -287.96079450 Ha       -7835.81189998 eV
  | Energy correction for multipole
  | error in Hartree potential    :           0.00185898 Ha           0.05058548 eV
  | Sum of eigenvalues per atom                           :        -329.23430035 eV
  | Total energy (T->0) per atom                          :        -597.02160886 eV  <-- do not rely on this value for anything but (periodic) metals
  | Electronic free energy per atom                       :        -597.02201185 eV

  atomic forces [eV/Ang]:
  -----------------------
  atom #    1
   Hellmann-Feynman + Multipole  : -.348365E+01 -.688564E+01 -.771888E+01
   Pulay + GGA                   : 0.341671E+01 0.772444E+01 0.699895E+01
   Van der Waals               : 0.245558E-02 0.348513E-02 0.289616E-02
   ----------------------------------------------------------------
   Total forces(   1)            : -.644866E-01 0.842288E+00 -.717035E+00
  atom #    2
   Hellmann-Feynman + Multipole  : 0.304200E+00 -.721517E+00 0.251484E+00
   Pulay + GGA                   : -.111443E+00 0.144467E+00 -.826179E-01
   Van der Waals               : 0.228260E-02 0.172350E-02 0.251991E-02
   ----------------------------------------------------------------
   Total forces(   2)            : 0.195039E+00 -.575327E+00 0.171386E+00
  atom #    3
   Hellmann-Feynman + Multipole  : -.183915E+00 -.127290E+00 0.940463E-01
   Pulay + GGA                   : 0.161187E+00 0.852414E-02 0.238912E-02
   Van der Waals               : -.657442E-03 -.174102E-02 -.128459E-02
   ----------------------------------------------------------------
   Total forces(   3)            : -.233854E-01 -.120507E+00 0.951508E-01
  atom #    4
   Hellmann-Feynman + Multipole  : -.323015E-01 -.745979E-01 0.301386E+00
   Pulay + GGA                   : -.553155E-01 -.365890E-01 0.175784E+00
   Van der Waals               : 0.171174E-02 0.210878E-02 0.896948E-03
   ----------------------------------------------------------------
   Total forces(   4)            : -.859053E-01 -.109078E+00 0.478067E+00
  atom #    5
   Hellmann-Feynman + Multipole  : -.243956E+01 -.307921E+01 -.171106E+02
   Pulay + GGA                   : 0.319688E+01 0.336749E+01 0.154908E+02
   Van der Waals               : -.296606E-02 -.200385E-02 -.127548E-02
   ----------------------------------------------------------------
   Total forces(   5)            : 0.754354E+00 0.286272E+00 -.162105E+01
  atom #    6
   Hellmann-Feynman + Multipole  : -.480704E+00 -.274029E+00 0.330093E+00
   Pulay + GGA                   : 0.104735E+00 0.706473E-01 0.624748E-01
   Van der Waals               : -.998615E-03 -.122618E-02 -.897833E-03
   ----------------------------------------------------------------
   Total forces(   6)            : -.376967E+00 -.204607E+00 0.391670E+00
  atom #    7
   Hellmann-Feynman + Multipole  : -.306963E+00 -.645680E-01 0.109627E+01
   Pulay + GGA                   : -.895590E-01 -.537006E-01 0.101401E+00
   Van der Waals               : -.182780E-02 -.234637E-02 -.285512E-02
   ----------------------------------------------------------------
   Total forces(   7)            : -.398350E+00 -.120615E+00 0.119482E+01
  Timings for vdw_correction_hirshfeld (Tkatchenko-Scheffler 2009):
  | CPU time:        0.978 s, Wall clock time:        0.978 s.
  Removing unitary transformations (pure translations, rotations) from forces on atoms.
  Atomic forces before filtering:
  | Net force on center of mass :  0.298043E-03 -.157353E-02 -.698934E-02 eV/A
  | Net torque on center of mass:  0.108979E-01 -.175282E-01 0.350701E-02 eV
  Atomic forces after filtering:
  | Net force on center of mass :  0.446015E-16 0.669023E-16 0.000000E+00 eV/A
  | Net torque on center of mass:  0.472042E-16 -.377634E-15 -.188817E-15 eV
 
  Energy and forces in a compact form:
  | Total energy uncorrected      :         -0.417914844108238E+04 eV
  | Total energy corrected        :         -0.417915126203029E+04 eV  <-- do not rely on this value for anything but (periodic) metals
  | Electronic free energy        :         -0.417915408297821E+04 eV
  Total atomic forces (unitary forces cleaned) [eV/Ang]:
  |   1         -0.652938846484308E-01          0.842329279932939E+00         -0.715138480218474E+00
  |   2          0.193466040659251E+00         -0.575413806590341E+00          0.173996613056558E+00
  |   3         -0.242304860282457E-01         -0.120127219099017E+00          0.959469492266922E-01
  |   4         -0.855742886772153E-01         -0.109276392010680E+00          0.480313111345429E+00
  |   5          0.754847505182407E+00          0.286775844965344E+00         -0.162117198718709E+01
  |   6         -0.376270556640765E+00         -0.203885002698715E+00          0.390748923153231E+00
  |   7         -0.396944329847001E+00         -0.120402704499531E+00          0.119530487062366E+01
 
  ------------------------------------ 
  Start decomposition of the XC Energy 
  ------------------------------------ 
  Hartree-Fock part   :          0.000000000 Ha              0.000000000 eV
  ------------------------------------ 
  X Energy            :        -18.210002630 Ha           -495.519383298 eV
  C Energy GGA        :         -0.667098210 Ha            -18.152665892 eV
  Total XC Energy     :        -18.877100840 Ha           -513.672049190 eV
  LDA X and C from self-consistent density 
  X Energy LDA        :        -16.393994559 Ha           -446.103289443 eV
  C Energy LDA        :         -1.355599955 Ha            -36.887751602 eV
  ------------------------------------ 
  End decomposition of the XC Energy 
  ------------------------------------ 
  Performing Hirshfeld analysis of fragment charges and moments.
  ----------------------------------------------------------------------
  | Atom     1: O
  |   Hirshfeld charge        :     -0.12221468
  |   Free atom volume        :     23.95238533
  |   Hirshfeld volume        :     24.43430836
  |   Hirshfeld dipole vector :      0.01529676       0.02416497       0.02012008
  |   Hirshfeld dipole moment :      0.03496790
  |   Hirshfeld second moments:      0.03602063       0.00204080      -0.00877906
  |                                  0.00204080      -0.02141005      -0.02677004
  |                                 -0.00877906      -0.02677004       0.01266758
  ----------------------------------------------------------------------
  | Atom     2: H
  |   Hirshfeld charge        :      0.01788051
  |   Free atom volume        :     10.44207651
  |   Hirshfeld volume        :     16.42450739
  |   Hirshfeld dipole vector :      0.03516491      -0.03597502       0.01258161
  |   Hirshfeld dipole moment :      0.05185624
  |   Hirshfeld second moments:     -0.08373879       0.01761017       0.01096817
  |                                  0.01761017      -0.11155740      -0.00159805
  |                                  0.01096817      -0.00159805      -0.08055162
  ----------------------------------------------------------------------
  | Atom     3: H
  |   Hirshfeld charge        :      0.10022218
  |   Free atom volume        :     10.44207651
  |   Hirshfeld volume        :     12.87007676
  |   Hirshfeld dipole vector :      0.03661256       0.02041694       0.00670251
  |   Hirshfeld dipole moment :      0.04245297
  |   Hirshfeld second moments:     -0.00377196       0.00411788      -0.00466482
  |                                  0.00411788      -0.02100746       0.01218804
  |                                 -0.00466482       0.01218804      -0.00791932
  ----------------------------------------------------------------------
  | Atom     4: H
  |   Hirshfeld charge        :      0.06120745
  |   Free atom volume        :     10.44207651
  |   Hirshfeld volume        :     15.06871812
  |   Hirshfeld dipole vector :      0.01253220       0.00627933       0.00288609
  |   Hirshfeld dipole moment :      0.01431138
  |   Hirshfeld second moments:     -0.05117770       0.02258431       0.01052328
  |                                  0.02258431      -0.05555795      -0.00006006
  |                                  0.01052328      -0.00006006      -0.06191857
  ----------------------------------------------------------------------
  | Atom     5: O
  |   Hirshfeld charge        :     -0.31550199
  |   Free atom volume        :     23.95238533
  |   Hirshfeld volume        :     23.18198411
  |   Hirshfeld dipole vector :      0.01905166       0.02279192       0.07206135
  |   Hirshfeld dipole moment :      0.07794405
  |   Hirshfeld second moments:      0.02180052       0.05881262      -0.02585329
  |                                  0.05881262      -0.03023781      -0.00523057
  |                                 -0.02585329      -0.00523057      -0.01856572
  ----------------------------------------------------------------------
  | Atom     6: H
  |   Hirshfeld charge        :      0.14373799
  |   Free atom volume        :     10.44207651
  |   Hirshfeld volume        :      7.07382305
  |   Hirshfeld dipole vector :      0.10044828       0.07070023       0.03880370
  |   Hirshfeld dipole moment :      0.12881812
  |   Hirshfeld second moments:      0.10770944       0.01375482      -0.01615588
  |                                  0.01375482       0.09039869      -0.00821089
  |                                 -0.01615588      -0.00821089       0.10564551
  ----------------------------------------------------------------------
  | Atom     7: H
  |   Hirshfeld charge        :      0.11466362
  |   Free atom volume        :     10.44207651
  |   Hirshfeld volume        :      9.09248782
  |   Hirshfeld dipole vector :     -0.04952628      -0.01634883       0.09188703
  |   Hirshfeld dipole moment :      0.10565681
  |   Hirshfeld second moments:      0.05781885       0.00763300      -0.00261750
  |                                  0.00763300       0.05088268       0.01026516
  |                                 -0.00261750       0.01026516       0.07410075
  ----------------------------------------------------------------------


------------------------------------------------------------------------------
  Final output of selected total energy values:

  The following output summarizes some interesting total energy values
  at the end of a run (AFTER all relaxation, molecular dynamics, etc.).

  | Total energy of the DFT / Hartree-Fock s.c.f. calculation      :          -4179.148441082 eV
  | Final zero-broadening corrected energy (caution - metals only) :          -4179.151262030 eV
  | For reference only, the value of 1 Hartree used in FHI-aims is :             27.211384500 eV

  Before relying on these values, please be sure to understand exactly which
  total energy value is referred to by a given number. Different objects may
  all carry the same name 'total energy'. Definitions:

  Total energy of the DFT / Hartree-Fock s.c.f. calculation:
  | Note that this energy does not include ANY quantities calculated after the
  | s.c.f. cycle, in particular not ANY RPA, MP2, etc. many-body perturbation terms.

  Final zero-broadening corrected energy:
  | For metallic systems only, a broadening of the occupation numbers at the Fermi
  | level can be extrapolated back to zero broadening by an electron-gas inspired
  | formula. For all systems that are not real metals, this value can be
  | meaningless and should be avoided.

------------------------------------------------------------------------------

------------------------------------------------------------
          Leaving FHI-aims.
          Date     :  20150727, Time     :  130500.552

          Computational steps:
          | Number of self-consistency cycles          :           14

          Detailed time accounting                     :  max(cpu_time)    wall_clock(cpu1)
          | Total time                                 :        7.733 s           7.749 s
          | Preparation time                           :        0.170 s           0.618 s
          | Grid partitioning                          :        0.085 s           0.085 s
          | Preloading free-atom quantities on grid    :        0.013 s           0.013 s
          | Free-atom superposition energy             :        0.020 s           0.020 s
          | Total time for integrations                :        2.607 s           2.614 s
          | Total time for solution of K.-S. equations :        0.157 s           0.150 s
          | Total time for density & force components  :        2.649 s           2.646 s
          | Total time for mixing                      :        0.077 s           0.076 s
          | Total time for Hartree multipole update    :        0.033 s           0.040 s
          | Total time for Hartree multipole sum       :        1.368 s           1.361 s
          | Total time for total energy evaluation     :        0.003 s           0.007 s
          | Total time for scaled ZORA corrections     :        0.000 s           0.000 s
          | Total time for TS (2009) vdW correction    :        0.013 s           0.013 s

          Have a nice day.
------------------------------------------------------------
