  MPI-parallelism will be employed.
------------------------------------------------------------
          Invoking FHI-aims ...
          Version 081213
          Compiled on 2013/08/29 at 17:41:06 on host generoso.

          When using FHI-aims, please cite the following reference:

          Volker Blum, Ralf Gehrke, Felix Hanke, Paula Havu,
          Ville Havu, Xinguo Ren, Karsten Reuter, and Matthias Scheffler,
          'Ab Initio Molecular Simulations with Numeric Atom-Centered Orbitals: FHI-aims',
          Computer Physics Communications 180, 2175-2196 (2009)

          For any questions about FHI-aims, please visit the aimsclub website
          with its forums and wiki. Contributions to both the forums and the
          wiki are warmly encouraged - they are for you, and everyone is welcome there.

------------------------------------------------------------

  Date     :  20150727, Time     :  120804.786
  Time zero on CPU 1             :   0.369930000000000E-01  s.
  Internal wall clock time zero  :           207230884.786  s.

  Using        8 parallel tasks.
  Task        0 on host gen59 reporting.
  Task        1 on host gen59 reporting.
  Task        2 on host gen59 reporting.
  Task        3 on host gen59 reporting.
  Task        4 on host gen59 reporting.
  Task        5 on host gen59 reporting.
  Task        6 on host gen59 reporting.
  Task        7 on host gen59 reporting.

  Performing system and environment tests:
  | Environment variable OMP_NUM_THREADS correctly set to 1.
  | Checking for scalapack...
  | No scalapack compiled in.

  Obtaining array dimensions for all initial allocations:
  
  -----------------------------------------------------------------------
  Parsing control.in (first pass over file, find array dimensions only).
  The contents of control.in will be repeated verbatim below
  unless switched off by setting 'verbatim_writeout .false.' .
  in the first line of control.in .
  -----------------------------------------------------------------------
  
  #########################################################################################
  #
  #  Volker Blum, FHI 2008 : Test run input file control.in
  #
  #########################################################################################
  #
  #  Physical model
  #
    xc                 rpbe
    spin               none
    relativistic       atomic_zora scalar
    charge             0.
   vdw_correction_hirshfeld
  #
  #  SCF convergence
  #
    occupation_type    gaussian 0.01
    mixer              pulay
      n_max_pulay        10
      charge_mix_param   0.1
    sc_accuracy_rho    5E-5
    sc_accuracy_eev    5E-3
    sc_accuracy_etot   5E-6
    sc_iter_limit      3000
  #
  #  Eigenvalue solver
  #
    KS_method          lapack
      empty_states       8
      basis_threshold    0.e-5
  #
  #  Efficiency
  #
  #   all previous settings are now default, except stratmann still
  #   undecided. Continue to handle stratmann with care, if at all.
  #
  #  partition_type stratmann
    partition_type rho_r2
  #  hartree_partition_type stratmann
  #
  #  Oprions for large clusters (100's of atoms: memory saving / better scaling)
  #
  # for periodic systems:
  #
    density_update_method orbital
    packed_matrix_format none
  #  k_grid 6 6 6
  #  output k_eigenvalue 1
  #  distributed_spline_storage .true.
  #
  #  Relaxation
  #
  #  relax_geometry   bfgs 5.e-3
    sc_accuracy_forces 5.E-4
    final_forces_cleaned .true.
  #
  #  Output options
  #
  #  output mulliken
    output Hirshfeld
  #  output dipole
  
  #harmonic_length_scale 0.001
  
  ################################################################################
  #
  #  FHI-aims code project
  #  VB, Fritz-Haber Institut, 2007
  #
  #  Suggested "safe" defaults for H atom (to be pasted into control.in file)
  #  Basis constructed for a non-relativistic H2 molecule using the
  #  PW-LDA functional.
  #
  ################################################################################
    species        H
  #     global species definitions
      nucleus             1
      cut_pot             4.0  2.0  1.0
      cut_free_atom       finite 8.0
      logarithmic         0.00010000 100.00  1.0123
      basis_dep_cutoff    1d-4  # 1d-4 is safe default - please check 5d-4 if you wish!
      radial_base         24 7.0
      radial_multiplier   2
      angular_grids       specified
        division   0.2783  110
        division   0.3822  194
        division   0.5626  302
  #      division   0.5922  434
  #      division   0.6227  590
  #      division   0.7206  770
        outer_grid  302
      l_hartree           4
  ################################################################################
  #
  #  Definition of "minimal" basis
  #
  ################################################################################
  #     valence basis states
      valence      1  s   1.
  #     ion occupancy
      ion_occ      1  s   0.5
  ################################################################################
  #
  #  Suggested additional basis functions. For production calculations,
  #  uncomment them one after another (the most important basis functions are
  #  listed first).
  #
  ################################################################################
  #  "First tier" - improvements: -1014.90 meV to -62.69 meV
       hydro 2 s 2.1
       hydro 2 p 3.5
  #  "Second tier" - improvements: -12.89 meV to -1.83 meV
       hydro 1 s 0.85
       hydro 2 p 3.7
       hydro 2 s 1.2
       hydro 3 d 7
  #  "Third tier" - improvements: -0.25 meV to -0.12 meV
  #     hydro 4 f 11.2
  #     hydro 3 p 4.8
  #     hydro 4 d 9
  #     hydro 3 s 3.2
  
  ################################################################################
  #
  #  FHI-aims code project
  #  VB, Fritz-Haber Institut, 2007
  #
  #  Suggested "safe" defaults for O atom (to be pasted into control.in file)
  #  All values have been tested for a non-relativistic, non-spinpolarized O2
  #  molecule using the PW-LDA functional. Validity for PBE is expected.
  #
  #  Constructed for dimers: 1.0 A, 1.208 A, 1.5 A, 2.0 A, 3.0 A
  #
  ################################################################################
    species        O
  #     global species definitions
      nucleus             8
      mass                15.9994
      l_hartree           4
      cut_pot             4.0  2.0  1.0
      cut_free_atom       finite 8.0
      basis_dep_cutoff    1d-4  # 1d-4 is safe default - please check 5d-4 if you wish!
      logarithmic         0.00010000 100.00  1.0123
      radial_base         36 7.0
      radial_multiplier   2
       angular_grids specified
        division   0.4087  110
        division   0.5181  194
        division   0.6184  302
  #      division   0.7315  434
  #      division   0.7934  590
  #      division   0.9656  770
  #      division   1.4041  974
  #      outer_grid 974
        outer_grid 302
  ################################################################################
  #
  #  Definition of "minimal" basis
  #
  ################################################################################
  #     valence basis states
      valence      2  s   2.
      valence      2  p   4.
  #     ion occupancy
      ion_occ      2  s   1.
      ion_occ      2  p   3.
  ################################################################################
  #
  #  Suggested additional basis functions. For production calculations,
  #  uncomment them one after another (the most important basis functions are
  #  listed first).
  #
  ################################################################################
  #  "First tier" - improvements: -699.05 meV to -159.38 meV
       hydro 2 p 1.8
       hydro 3 d 7.6
       hydro 3 s 6.4
  #  "Second tier" - improvements: -49.91 meV to -5.39 meV
       hydro 4 f 11.6
       hydro 3 p 6.2
       hydro 3 d 5.6
       hydro 5 g 17.6
       hydro 1 s 0.75
  #  "Third tier" - improvements: -2.83 meV to -0.50 meV
  #     ionic 2 p auto
  #     hydro 4 f 10.8
  #     hydro 4 d 4.7
  #     hydro 2 s 6.8
  #  "Fourth tier" - improvements: -0.40 meV to -0.12 meV
  #     hydro 3 p 5
  #     hydro 3 s 3.3
  #     hydro 5 g 15.6
  #     hydro 4 f 17.6
  #     hydro 4 d 14
  # Further basis functions - -0.08 meV and below
  #     hydro 3 s 2.1
  #     hydro 4 d 11.6
  #     hydro 3 p 16
  #     hydro 2 s 17.2
  
  
  -----------------------------------------------------------------------
  Completed first pass over input file control.in .
  -----------------------------------------------------------------------
  
  
  -----------------------------------------------------------------------
  Parsing geometry.in (first pass over file, find array dimensions only).
  The contents of geometry.in will be repeated verbatim below
  unless switched off by setting 'verbatim_writeout .false.' .
  in the first line of geometry.in .
  -----------------------------------------------------------------------
  
  atom      -4.053030000      0.065001000     -1.525160000  O
  atom      -4.566710000      0.974813000     -1.912820000  H
  atom      -3.067820000      0.330172000     -1.477310000  H
  atom      -4.370360000     -0.049164000     -0.572274000  H
  atom      -4.581760000     -0.256435000      0.939478000  O
  atom      -4.349860000      0.471090000      1.504340000  H
  atom      -5.393870000     -0.726611000      1.228070000  H
  atom      -5.293160000      2.192130000     -2.328800000  O
  atom      -4.829300000      2.988660000     -1.973850000  H
  atom      -5.428570000      2.328640000     -3.235170000  H
  atom      -1.975360000      2.858040000      0.453140000  O
  atom      -1.223550000      3.375850000      0.786238000  H
  atom      -2.537520000      2.567960000      1.156120000  H
  atom      -5.628340000      3.730740000      1.385610000  O
  atom      -6.090650000      4.418470000      1.860350000  H
  atom      -5.158540000      4.200260000      0.615875000  H
  
  -----------------------------------------------------------------------
  Completed first pass over input file geometry.in .
  -----------------------------------------------------------------------
  
 
  Basic array size parameters: 
  | Number of species                 :        2
  | Number of atoms                   :       16
  | Max. basis fn. angular momentum   :        4
  | Max. atomic/ionic basis occupied n:        2
  | Max. number of basis fn. types    :        2
  | Max. radial fns per species/type  :        8
  | Max. logarithmic grid size        :     1301
  | Max. radial integration grid size :       73
  | Max. angular integration grid size:      302
  | Max. angular grid division number :        8
  | Radial grid for Hartree potential :     1301
  | Number of spin channels           :        1

------------------------------------------------------------
          Reading file control.in.
------------------------------------------------------------
  XC: Using RPBE gradient-corrected functionals.
  Spin treatment: No spin polarisation.
  Scalar relativistic treatment of kinetic energy: on-site free-atom approximation to ZORA.
  Charge =   0.000000E+00: Neutral system requested explicitly.
  Using non-empirical van der Waals correction (Hirshfeld partitioning):
  Occupation type: Gaussian broadening, width =   0.100000E-01 eV.
  Using pulay charge density mixing.
  Pulay mixing - number of memorized iterations:   10
  Charge density mixing - mixing parameter:     0.1000
  Convergence accuracy of self-consistent charge density: 0.5000E-04
  Convergence accuracy of sum of eigenvalues: 0.5000E-02
  Convergence accuracy of total energy: 0.5000E-05
  Maximum number of s.-c. iterations  :  3000
  Kohn-Sham eigenvalues and eigenfunctions calculated by lapack diagonalisation (D&C).
  Number of empty states per atom:        8
  Threshold for basis singularities: 0.0000E+00
  Partition function in integrals calculations: rho / r^2
 Using packed matrix format           0
  Convergence accuracy of forces: 0.5000E-03
  Cleaning forces before final output.
  Hirshfeld charge analysis will be performed.
 
  Reading configuration options for species H                   .
  | Found nuclear charge :   1.0000
  | Found cutoff potl. onset [A], width [A], scale factor :    4.00000    2.00000    1.00000
  | Found cutoff specification for free atom: Cutoff potential begins at    8.00000 A.
  | Found logarithmic grid data [bohr] : 0.1000E-03 0.1000E+03 0.1012E+01
  | Threshold for basis-dependent cutoff potential is   0.100000E-03
  | Found data for basic radial integration grid :    24 points, outermost radius =    7.000 A
  | Found multiplier for basic radial grid :   2
  | Found angular grid specification: user-specified.
  | Specified grid contains     4 separate shells.
  | Check grid settings after all constraints further below.
  | Found l_max for Hartree potential  :   4
  | Found free-atom valence shell :  1 s   1.000
  | No ionic wave fns used. Skipping ion_occ.
  | Found hydrogenic basis function :  2 s   2.100
  | Found hydrogenic basis function :  2 p   3.500
  | Found hydrogenic basis function :  1 s   0.850
  | Found hydrogenic basis function :  2 p   3.700
  | Found hydrogenic basis function :  2 s   1.200
  | Found hydrogenic basis function :  3 d   7.000
  Species H                   : Missing cutoff potential type.
  Defaulting to exp(1/x)/(1-x)^2 type cutoff potential.
  Species H : On-site basis accuracy parameter (for Gram-Schmidt orthonormalisation) not specified.
  Using default value basis_acc =  0.1000000E-03.
  Species H                   : Using default innermost maximum threshold i_radial=  2 for radial functions.
  Species H                   : Basic radial grid will be enhanced according to radial_multiplier =   2, to contain    49 grid points.
 
  Reading configuration options for species O                   .
  | Found nuclear charge :   8.0000
  | Found atomic mass :    15.9994000000000      amu
  | Found l_max for Hartree potential  :   4
  | Found cutoff potl. onset [A], width [A], scale factor :    4.00000    2.00000    1.00000
  | Found cutoff specification for free atom: Cutoff potential begins at    8.00000 A.
  | Threshold for basis-dependent cutoff potential is   0.100000E-03
  | Found logarithmic grid data [bohr] : 0.1000E-03 0.1000E+03 0.1012E+01
  | Found data for basic radial integration grid :    36 points, outermost radius =    7.000 A
  | Found multiplier for basic radial grid :   2
  | Found angular grid specification: user-specified.
  | Specified grid contains     4 separate shells.
  | Check grid settings after all constraints further below.
  | Found free-atom valence shell :  2 s   2.000
  | Found free-atom valence shell :  2 p   4.000
  | No ionic wave fns used. Skipping ion_occ.
  | No ionic wave fns used. Skipping ion_occ.
  | Found hydrogenic basis function :  2 p   1.800
  | Found hydrogenic basis function :  3 d   7.600
  | Found hydrogenic basis function :  3 s   6.400
  | Found hydrogenic basis function :  4 f  11.600
  | Found hydrogenic basis function :  3 p   6.200
  | Found hydrogenic basis function :  3 d   5.600
  | Found hydrogenic basis function :  5 g  17.600
  | Found hydrogenic basis function :  1 s   0.750
  Species O                   : Missing cutoff potential type.
  Defaulting to exp(1/x)/(1-x)^2 type cutoff potential.
  Species O : On-site basis accuracy parameter (for Gram-Schmidt orthonormalisation) not specified.
  Using default value basis_acc =  0.1000000E-03.
  Species O                   : Using default innermost maximum threshold i_radial=  2 for radial functions.
  Species O                   : Basic radial grid will be enhanced according to radial_multiplier =   2, to contain    73 grid points.
 
  Finished reading input file 'control.in'. Consistency checks are next.
 
  Target number of points in a grid batch is not set. Defaulting to  100
  Method for grid partitioning is not set. Defaulting to parallel hash+maxmin partitioning.
  Batch size limit is not set. Defaulting to    200
  By default, will store active basis functions for each batch.
  If in need of memory, prune_basis_once .false. can be used to disable this option.
  communication_type for Hartree potential was not specified.
  Defaulting to calc_hartree .
  Pulay mixer: Number of initial linear mixing iterations not set.
  Defaulting to    0 iterations.
  Work space size for distributed Hartree potential not set.
  Defaulting to   0.200000E+03 MB.
  Algorithm-dependent basis array size parameters:
  | n_max_pulay                         :       10
  Geometry relaxation not requested: no relaxation will be performed.
  Handling of forces: Unphysical translation and rotation will be removed from forces.
  No accuracy limit for integral partition fn. given. Defaulting to 0.1000E-14.
  No threshold value for u(r) in integrations given. Defaulting to 0.1000E-05.
  No accuracy for occupation numbers given. Defaulting to 0.1000E-07.
  No threshold value for occupation numbers given. Defaulting to 0.0000E+00.
  No accuracy for fermi level given. Defaulting to 0.1000E-19.
  Maximum # of iterations to find E_F not set. Defaulting to  200.
  Will not use alltoall communication since running on < 1024 CPUs.
  Partitioning for Hartree potential was not defined. Using partition_type for integrals.
  | Reporting present value of keyword multip_moments_threshold  :       0.10000000E-09
  | This value may affect high angular momentum components of the Hartree potential in periodic systems.
  No q(lm)/r^(l+1) cutoff set for long-range Hartree potential.
  | Using default value of  0.100000E-09 .
  | Verify using the multipole_threshold keyword.
  Defaulting to new monopole extrapolation.
  Density update method: Loop over occupied states selected for charge density update.
------------------------------------------------------------


------------------------------------------------------------
          Reading geometry description geometry.in.
------------------------------------------------------------
  Input structure read successfully.
  The structure contains       16 atoms,  and a total of         51.000 electrons.

  Input geometry:
  | No unit cell requested.
  | Atomic structure:
  |       Atom                x [A]            y [A]            z [A]
  |    1: Species O             -4.053030         0.065001        -1.525160
  |    2: Species H             -4.566710         0.974813        -1.912820
  |    3: Species H             -3.067820         0.330172        -1.477310
  |    4: Species H             -4.370360        -0.049164        -0.572274
  |    5: Species O             -4.581760        -0.256435         0.939478
  |    6: Species H             -4.349860         0.471090         1.504340
  |    7: Species H             -5.393870        -0.726611         1.228070
  |    8: Species O             -5.293160         2.192130        -2.328800
  |    9: Species H             -4.829300         2.988660        -1.973850
  |   10: Species H             -5.428570         2.328640        -3.235170
  |   11: Species O             -1.975360         2.858040         0.453140
  |   12: Species H             -1.223550         3.375850         0.786238
  |   13: Species H             -2.537520         2.567960         1.156120
  |   14: Species O             -5.628340         3.730740         1.385610
  |   15: Species H             -6.090650         4.418470         1.860350
  |   16: Species H             -5.158540         4.200260         0.615875
  |

  | The smallest distance between any two atoms is         0.92654057 AA.
  |
  | The first atom of this pair is atom number                      8 .
  | The second atom of this pair is atom number                    10 .

  Structure-dependent array size parameters: 
  | Maximum number of distinct radial functions  :       18
  | Maximum number of basis functions            :      360
  | Number of Kohn-Sham states (occupied + empty):       90
------------------------------------------------------------

------------------------------------------------------------
          Preparing all fixed parts of the calculation.
------------------------------------------------------------
  Determining machine precision:
    2.225073858507201E-308
  Setting up grids for atomic and cluster calculations.

  Creating wave function, potential, and density for free atoms.

  Species: H

  List of occupied orbitals and eigenvalues:
    n    l              occ      energy [Ha]    energy [eV]
    1    0           1.0000        -0.241408        -6.5691


  Species: O

  List of occupied orbitals and eigenvalues:
    n    l              occ      energy [Ha]    energy [eV]
    1    0           2.0000       -18.944147      -515.4965
    2    0           2.0000        -0.883529       -24.0421
    2    1           4.0000        -0.330176        -8.9845

  Creating fixed part of basis set: Ionic, confined, hydrogenic.
 
  H                    hydrogenic:
 
  List of hydrogenic basis orbitals: 
    n    l      effective z      eigenvalue [eV]  inner max. [A]     outer max. [A]     outer radius [A]   
    2    0         2.100000       -14.9965           0.193241           1.317192           5.372934
    2    1         3.500000       -41.6672           0.602363           0.602363           4.056010
    1    0         0.850000        -9.8292           0.624864           0.624864           5.372934
    2    1         3.700000       -46.5653           0.573616           0.573616           3.909951
    2    0         1.200000        -4.5995           0.334977           2.228160           5.505921
    3    2         7.000000       -74.0753           0.680692           0.680692           3.769152
 
 
  O                    hydrogenic:
 
  List of hydrogenic basis orbitals: 
    n    l      effective z      eigenvalue [eV]  inner max. [A]     outer max. [A]     outer radius [A]   
    2    1         1.800000       -11.0118           1.178546           1.178546           5.432516
    3    2         7.600000       -87.3182           0.624117           0.624117           3.541422
    3    0         6.400000       -61.9209           0.061166           1.081887           4.306510
    4    3        11.600000      -114.4238           0.731621           0.731621           3.584982
    3    1         6.200000       -58.1113           0.255677           1.030255           4.306510
    3    2         5.600000       -47.4081           0.847222           0.847222           4.413102
    5    4        17.600000      -168.5799           0.749730           0.749730           3.372413
    1    0         0.750000        -7.6499           0.705275           0.705275           5.366508
 

  Adding cutoff potential to free-atom effective potential.
  Creating atomic-like basis functions for current effective potential.

  Species H                   :

  List of atomic basis orbitals and eigenvalues:
    n    l      energy [Ha]    energy [eV]    outer radius [A]
    1    0        -0.241374        -6.5681       5.372934


  Species O                   :

  List of atomic basis orbitals and eigenvalues:
    n    l      energy [Ha]    energy [eV]    outer radius [A]
    1    0       -18.944147      -515.4965       1.415745
    2    0        -0.883529       -24.0421       5.048305
    2    1        -0.330173        -8.9845       5.301302

  Assembling full basis from fixed parts.
  | Species H :   atomic orbital   1 s accepted.
  | Species H :    hydro orbital   2 s accepted.
  | Species H :    hydro orbital   1 s accepted.
  | Species H :    hydro orbital   2 s accepted.
  | Species H :    hydro orbital   2 p accepted.
  | Species H :    hydro orbital   2 p accepted.
  | Species H :    hydro orbital   3 d accepted.
  | Species O :   atomic orbital   1 s accepted.
  | Species O :    hydro orbital   3 s accepted.
  | Species O :   atomic orbital   2 s accepted.
  | Species O :    hydro orbital   1 s accepted.
  | Species O :    hydro orbital   3 p accepted.
  | Species O :   atomic orbital   2 p accepted.
  | Species O :    hydro orbital   2 p accepted.
  | Species O :    hydro orbital   3 d accepted.
  | Species O :    hydro orbital   3 d accepted.
  | Species O :    hydro orbital   4 f accepted.
  | Species O :    hydro orbital   5 g accepted.
 
  Basis size parameters after reduction:
  | Total number of radial functions:       18
  | Total number of basis functions :      360
 
  Testing on-site integration grid accuracy.
  |  Species  Function  <phi|h_atom|phi> (log., in eV)  <phi|h_atom|phi> (rad., in eV)
           1        1                 -6.5683835025                 -6.5684759159
           1        2                 13.3711789951                 13.3708738703
           1        3                 23.6590910787                 23.6532055418
           1        4                 16.2963827186                 16.1870710655 ***
           1        5                 28.7627214838                 28.7627215090
           1        6                 59.5965249172                 59.5965950857
           1        7                 60.2220506392                 60.2220503827
           2        8               -515.4964576505               -515.4964530710
           2        9                 15.3030791347                 15.3030722972
           2       10                -21.7296094581                -21.7296135470
           2       11                 14.2969371730                 14.2969701621
           2       12                 21.0679693190                 21.0679697493
           2       13                 -2.3833606469                 -2.3833613176
           2       14                 13.7067136422                 13.7066766629
           2       15                 45.8013116808                 45.8013116965
           2       16                 52.2309815402                 52.2309831494
           2       17                 85.4120732416                 85.4120732763
           2       18                142.1019167745                142.1019167817
 * Note: Onsite integrals marked "***" above are less accurate than
 * onsite_accuracy_threshold =    0.03000 eV. Usually, this is harmless.
 * When in doubt, tighten the "radial" and/or "radial_multiplier" flags to check.

  Preparing densities etc. for the partition functions (integrals / Hartree potential).

  Preparations completed.
  max(cpu_time)          :      0.173 s.
  Wall clock time (cpu1) :      0.493 s.
------------------------------------------------------------

------------------------------------------------------------
          Begin self-consistency loop: Initialization.

          Date     :  20150727, Time     :  120805.285
------------------------------------------------------------

  Initializing index lists of integration centers etc. from given atomic structure:
  | Number of centers in hartree potential         :        16
  | Number of centers in hartree multipole         :        16
  | Number of centers in electron density summation:        16
  | Number of centers in basis integrals           :        16
  | Number of centers in integrals                 :        16
  Partitioning the integration grid into batches with parallel hashing+maxmin method.
  | Number of batches:     2045
  | Maximal batch size:     190
  | Minimal batch size:      51
  | Average batch size:     101.860
  | Standard deviation of batch sizes:      31.410

  Integration load balanced across     8 MPI tasks.
  Work distribution over tasks is as follows:
  Task     0 has      26002 integration points.
  Task     1 has      26119 integration points.
  Task     2 has      26029 integration points.
  Task     3 has      26069 integration points.
  Task     4 has      25989 integration points.
  Task     5 has      26068 integration points.
  Task     6 has      26000 integration points.
  Task     7 has      26028 integration points.
  Initializing partition tables, free-atom densities, potentials, etc. across the integration grid (initialize_grid_storage).
  | Net number of integration points:   208304
  | of which are non-zero points    :   207735
  Obtaining max. number of non-zero basis functions in each batch (get_n_compute_maxes).
  | Maximal number of non-zero basis functions:      356 in task     0
  | Maximal number of non-zero basis functions:      356 in task     1
  | Maximal number of non-zero basis functions:      356 in task     2
  | Maximal number of non-zero basis functions:      356 in task     3
  | Maximal number of non-zero basis functions:      356 in task     4
  | Maximal number of non-zero basis functions:      356 in task     5
  | Maximal number of non-zero basis functions:      356 in task     6
  | Maximal number of non-zero basis functions:      356 in task     7
  Integrating Hamiltonian matrix: batch-based integration.
  Time summed over all CPUs for integration: real work        7.798 s, elapsed        7.920 s
  Integrating overlap matrix.
  Time summed over all CPUs for integration: real work        4.225 s, elapsed        4.304 s

  Updating Kohn-Sham eigenvalues, eigenvectors, occupation numbers, and Fermi level.
  Solving generalized eigenproblem
  Updating Kohn-Sham eigenvalues and eigenfunctions.
  Transforming overlap matrix and checking for singularities.
  Overlap matrix is nonsingular:
  | Lowest eigenvalue:  0.232467E-03
  Solving real generalised eigenvalue problem by standard LAPACK (fast)
  Determining occupation numbers for Kohn-Sham eigenstates.
  | Chemical potential (Fermi level) in eV                 : -.28260243E+01
  | Error in electron count due to remaining E_F inaccuracy: -.15774049E-11
  | Maximum occupation number of highest empty state:  0.00E+00

  Writing Kohn-Sham eigenvalues.

  State    Occupation    Eigenvalue [Ha]    Eigenvalue [eV]
      1       2.00000         -19.065137         -518.78878
      2       2.00000         -19.064862         -518.78128
      3       2.00000         -19.059143         -518.62567
      4       2.00000         -19.054480         -518.49877
      5       2.00000         -19.044535         -518.22816
      6       2.00000          -1.130039          -30.74991
      7       2.00000          -1.116450          -30.38015
      8       2.00000          -1.103424          -30.02568
      9       2.00000          -1.102848          -30.01001
     10       2.00000          -1.089146          -29.63716
     11       2.00000          -0.651611          -17.73124
     12       2.00000          -0.650855          -17.71068
     13       2.00000          -0.646465          -17.59120
     14       2.00000          -0.640950          -17.44114
     15       2.00000          -0.620565          -16.88644
     16       2.00000          -0.618315          -16.82520
     17       2.00000          -0.533857          -14.52698
     18       2.00000          -0.506764          -13.78974
     19       2.00000          -0.501660          -13.65087
     20       2.00000          -0.501135          -13.63658
     21       2.00000          -0.484003          -13.17038
     22       2.00000          -0.452691          -12.31836
     23       2.00000          -0.446093          -12.13880
     24       2.00000          -0.438120          -11.92185
     25       2.00000          -0.430160          -11.70524
     26       1.00000          -0.103854           -2.82602
     27       0.00000          -0.071686           -1.95067
     28       0.00000          -0.065374           -1.77890
     29       0.00000          -0.053238           -1.44868
     30       0.00000          -0.036586           -0.99557
     31       0.00000          -0.013538           -0.36840
     32       0.00000          -0.010978           -0.29873
     33       0.00000           0.024144            0.65698
     34       0.00000           0.029765            0.80996
     35       0.00000           0.044975            1.22384
     36       0.00000           0.057391            1.56170
     37       0.00000           0.062124            1.69049
     38       0.00000           0.077160            2.09962
     39       0.00000           0.082858            2.25468
     40       0.00000           0.095084            2.58738
     41       0.00000           0.097049            2.64084
     42       0.00000           0.103402            2.81372
     43       0.00000           0.111116            3.02363
     44       0.00000           0.116821            3.17887
     45       0.00000           0.121126            3.29600
     46       0.00000           0.129113            3.51334
     47       0.00000           0.135940            3.69910
     48       0.00000           0.140484            3.82277
     49       0.00000           0.147647            4.01767
     50       0.00000           0.156177            4.24979
     51       0.00000           0.169022            4.59933
     52       0.00000           0.181840            4.94813
     53       0.00000           0.197851            5.38381
     54       0.00000           0.202618            5.51351
     55       0.00000           0.219607            5.97582
     56       0.00000           0.231269            6.29314
     57       0.00000           0.264499            7.19739
     58       0.00000           0.267401            7.27634
     59       0.00000           0.274412            7.46713
     60       0.00000           0.285034            7.75616
     61       0.00000           0.295265            8.03457
     62       0.00000           0.307936            8.37937
     63       0.00000           0.333118            9.06461
     64       0.00000           0.350048            9.52529
     65       0.00000           0.360322            9.80486
     66       0.00000           0.376360           10.24128
     67       0.00000           0.377598           10.27497
     68       0.00000           0.387788           10.55224
     69       0.00000           0.403011           10.96648
     70       0.00000           0.425455           11.57721
     71       0.00000           0.431476           11.74106
     72       0.00000           0.434496           11.82325
     73       0.00000           0.442529           12.04183
     74       0.00000           0.446745           12.15654
     75       0.00000           0.468317           12.74356
     76       0.00000           0.474197           12.90355
     77       0.00000           0.477297           12.98791
     78       0.00000           0.515034           14.01478
     79       0.00000           0.517182           14.07324
     80       0.00000           0.534713           14.55027
     81       0.00000           0.545390           14.84082
     82       0.00000           0.557837           15.17952
     83       0.00000           0.579715           15.77486
     84       0.00000           0.589814           16.04965
     85       0.00000           0.617807           16.81139
     86       0.00000           0.648976           17.65953
     87       0.00000           0.695084           18.91419
     88       0.00000           0.723174           19.67856
     89       0.00000           0.738118           20.08521
     90       0.00000           0.757645           20.61657

  Highest occupied state (VBM) at    -11.70523705 eV
  | Occupation number:      2.00000000

  Lowest unoccupied state (CBM) at    -2.82602433 eV
  | Occupation number:      1.00000000

  Overall HOMO-LUMO gap:      8.87921272 eV.
  Calculating total energy contributions from superposition of free atom densities.

  Total energy components:
  | Sum of eigenvalues            :        -218.01046444 Ha       -5932.36657280 eV
  | XC energy correction          :         -45.95224637 Ha       -1250.42424453 eV
  | XC potential correction       :          58.72503607 Ha        1597.98953614 eV
  | Free-atom electrostatic energy:        -178.31855165 Ha       -4852.29467241 eV
  | Hartree energy correction     :           0.00000000 Ha           0.00000000 eV
  | van der Waals energy corr.    :           0.00000000 Ha           0.00000000 eV
  | Entropy correction            :          -0.00010367 Ha          -0.00282095 eV
  | ---------------------------
  | Total energy                  :        -383.55622639 Ha      -10437.09595360 eV
  | Total energy, T -> 0          :        -383.55633006 Ha      -10437.09877454 eV  <-- do not rely on this value for anything but (periodic) metals
  | Electronic free energy        :        -383.55643372 Ha      -10437.10159549 eV

  Derived energy quantities:
  | Kinetic energy                :         379.85558106 Ha       10336.39627058 eV
  | Electrostatic energy          :        -717.45956108 Ha      -19523.06797964 eV
  | Energy correction for multipole
  | error in Hartree potential    :           0.00000000 Ha           0.00000000 eV
  | Sum of eigenvalues per atom                           :        -370.77291080 eV
  | Total energy (T->0) per atom                          :        -652.31867341 eV  <-- do not rely on this value for anything but (periodic) metals
  | Electronic free energy per atom                       :        -652.31884972 eV
  Initialize hartree_potential_storage
  Max. number of atoms included in rho_multipole:           16

  End scf initialization - timings             :  max(cpu_time)    wall_clock(cpu1)
  | Time for scf. initialization               :        2.141 s           2.141 s
  | Boundary condition initialization          :        0.000 s           0.000 s
  | Integration                                :        1.532 s           1.532 s
  | Solution of K.-S. eqns.                    :        0.213 s           0.213 s
  | Grid partitioning                          :        0.157 s           0.157 s
  | Preloading free-atom quantities on grid    :        0.014 s           0.014 s
  | Free-atom superposition energy             :        0.074 s           0.073 s
  | Total energy evaluation                    :        0.000 s           0.001 s
------------------------------------------------------------

------------------------------------------------------------
          Begin self-consistency iteration #    1

  Date     :  20150727, Time     :  120807.426
------------------------------------------------------------
  Evaluating new KS density.
  Integration grid: deviation in total charge (<rho> - N_e) =  -1.584510E-12
  Pulay mixing of updated and previous charge densities.

  Evaluating partitioned Hartree potential by multipole expansion.
  | Analytical far-field extrapolation by fixed multipoles:
  | Hartree multipole sum: apparent total charge =  -0.128275E-05
  Summing up the Hartree potential.
  Time summed over all CPUs for potential: real work        2.894 s, elapsed        2.910 s
  | RMS charge density error from multipole expansion :   0.172176E-02

  Integrating Hamiltonian matrix: batch-based integration.
  Time summed over all CPUs for integration: real work        7.787 s, elapsed        7.960 s

  Updating Kohn-Sham eigenvalues, eigenvectors, occupation numbers, and Fermi level.
  Solving generalized eigenproblem
  Updating Kohn-Sham eigenvalues and eigenfunctions.
  Solving real generalised eigenvalue problem by standard LAPACK (fast)
  Determining occupation numbers for Kohn-Sham eigenstates.
  | Chemical potential (Fermi level) in eV                 : -.25979764E+01
  | Error in electron count due to remaining E_F inaccuracy: 0.00000000E+00
  | Maximum occupation number of highest empty state:  0.00E+00

  Writing Kohn-Sham eigenvalues.

  State    Occupation    Eigenvalue [Ha]    Eigenvalue [eV]
      1       2.00000         -19.012326         -517.35171
      2       2.00000         -18.996968         -516.93381
      3       2.00000         -18.987272         -516.66996
      4       2.00000         -18.969758         -516.19339
      5       2.00000         -18.961395         -515.96580
      6       2.00000          -1.103205          -30.01975
      7       2.00000          -1.085426          -29.53595
      8       2.00000          -1.069802          -29.11079
      9       2.00000          -1.060209          -28.84975
     10       2.00000          -1.046279          -28.47071
     11       2.00000          -0.624232          -16.98620
     12       2.00000          -0.621966          -16.92456
     13       2.00000          -0.618053          -16.81807
     14       2.00000          -0.609001          -16.57176
     15       2.00000          -0.598972          -16.29886
     16       2.00000          -0.581213          -15.81562
     17       2.00000          -0.504449          -13.72675
     18       2.00000          -0.474587          -12.91418
     19       2.00000          -0.459092          -12.49254
     20       2.00000          -0.458224          -12.46890
     21       2.00000          -0.455144          -12.38510
     22       2.00000          -0.420138          -11.43253
     23       2.00000          -0.410458          -11.16912
     24       2.00000          -0.393491          -10.70744
     25       2.00000          -0.385566          -10.49179
     26       1.00000          -0.095474           -2.59798
     27       0.00000          -0.063616           -1.73109
     28       0.00000          -0.057516           -1.56510
     29       0.00000          -0.045398           -1.23535
     30       0.00000          -0.029739           -0.80924
     31       0.00000          -0.006216           -0.16915
     32       0.00000          -0.002992           -0.08142
     33       0.00000           0.032109            0.87372
     34       0.00000           0.037427            1.01843
     35       0.00000           0.054078            1.47153
     36       0.00000           0.062003            1.68719
     37       0.00000           0.067566            1.83856
     38       0.00000           0.086133            2.34380
     39       0.00000           0.090341            2.45830
     40       0.00000           0.102471            2.78838
     41       0.00000           0.105091            2.85966
     42       0.00000           0.110989            3.02017
     43       0.00000           0.119682            3.25671
     44       0.00000           0.124673            3.39251
     45       0.00000           0.128950            3.50892
     46       0.00000           0.139490            3.79573
     47       0.00000           0.144930            3.94374
     48       0.00000           0.149148            4.05853
     49       0.00000           0.156292            4.25293
     50       0.00000           0.165862            4.51333
     51       0.00000           0.178137            4.84737
     52       0.00000           0.189631            5.16011
     53       0.00000           0.205755            5.59888
     54       0.00000           0.210910            5.73916
     55       0.00000           0.228260            6.21126
     56       0.00000           0.237302            6.45731
     57       0.00000           0.271763            7.39506
     58       0.00000           0.275171            7.48780
     59       0.00000           0.281626            7.66345
     60       0.00000           0.293115            7.97607
     61       0.00000           0.300111            8.16644
     62       0.00000           0.313987            8.54402
     63       0.00000           0.342181            9.31122
     64       0.00000           0.358285            9.74942
     65       0.00000           0.368166           10.01830
     66       0.00000           0.383040           10.42305
     67       0.00000           0.385805           10.49828
     68       0.00000           0.396226           10.78187
     69       0.00000           0.411429           11.19556
     70       0.00000           0.435107           11.83988
     71       0.00000           0.440235           11.97939
     72       0.00000           0.442705           12.04661
     73       0.00000           0.452263           12.30671
     74       0.00000           0.455979           12.40783
     75       0.00000           0.477788           13.00126
     76       0.00000           0.483960           13.16922
     77       0.00000           0.488439           13.29111
     78       0.00000           0.525715           14.30542
     79       0.00000           0.528686           14.38629
     80       0.00000           0.543704           14.79493
     81       0.00000           0.555234           15.10867
     82       0.00000           0.569671           15.50154
     83       0.00000           0.591711           16.10127
     84       0.00000           0.600257           16.33383
     85       0.00000           0.628762           17.10949
     86       0.00000           0.659551           17.94729
     87       0.00000           0.708184           19.27066
     88       0.00000           0.733186           19.95099
     89       0.00000           0.748746           20.37441
     90       0.00000           0.769485           20.93876

  Highest occupied state (VBM) at     -2.59797644 eV
  | Occupation number:      1.00000000

  Lowest unoccupied state (CBM) at    -2.59797644 eV
  | Occupation number:      1.00000000

  Overall HOMO-LUMO gap:      0.00000000 eV.

  Total energy components:
  | Sum of eigenvalues            :        -215.90992711 Ha       -5875.20804401 eV
  | XC energy correction          :         -46.18116548 Ha       -1256.65345061 eV
  | XC potential correction       :          59.02429462 Ha        1606.13277561 eV
  | Free-atom electrostatic energy:        -178.31855165 Ha       -4852.29467241 eV
  | Hartree energy correction     :          -2.04103096 Ha         -55.53927809 eV
  | van der Waals energy corr.    :           0.00000000 Ha           0.00000000 eV
  | Entropy correction            :          -0.00010367 Ha          -0.00282095 eV
  | ---------------------------
  | Total energy                  :        -383.42638058 Ha      -10433.56266950 eV
  | Total energy, T -> 0          :        -383.42648425 Ha      -10433.56549045 eV  <-- do not rely on this value for anything but (periodic) metals
  | Electronic free energy        :        -383.42658792 Ha      -10433.56831140 eV

  Derived energy quantities:
  | Kinetic energy                :         381.25824396 Ha       10374.56467030 eV
  | Electrostatic energy          :        -718.50345907 Ha      -19551.47388920 eV
  | Energy correction for multipole
  | error in Hartree potential    :           0.00027699 Ha           0.00753720 eV
  | Sum of eigenvalues per atom                           :        -367.20050275 eV
  | Total energy (T->0) per atom                          :        -652.09784315 eV  <-- do not rely on this value for anything but (periodic) metals
  | Electronic free energy per atom                       :        -652.09801946 eV

  Self-consistency convergence accuracy:
  | Change of charge density      : 0.6551E+00
  | Change of sum of eigenvalues  : 0.5716E+02 eV
  | Change of total energy        : 0.3533E+01 eV

  End self-consistency iteration #     1       :  max(cpu_time)    wall_clock(cpu1)
  | Time for this iteration                    :        2.094 s           2.093 s
  | Charge density update                      :        0.665 s           0.664 s
  | Density mixing                             :        0.004 s           0.004 s
  | Hartree multipole update                   :        0.005 s           0.005 s
  | Hartree multipole summation                :        0.365 s           0.365 s
  | Integration                                :        0.997 s           0.997 s
  | Solution of K.-S. eqns.                    :        0.057 s           0.057 s
  | Total energy evaluation                    :        0.001 s           0.000 s
------------------------------------------------------------

------------------------------------------------------------
          Begin self-consistency iteration #    2

  Date     :  20150727, Time     :  120809.519
------------------------------------------------------------
  Evaluating new KS density.
  Integration grid: deviation in total charge (<rho> - N_e) =   1.421085E-14
  Pulay mixing of updated and previous charge densities.

  Evaluating partitioned Hartree potential by multipole expansion.
  | Analytical far-field extrapolation by fixed multipoles:
  | Hartree multipole sum: apparent total charge =  -0.382710E-05
  Summing up the Hartree potential.
  Time summed over all CPUs for potential: real work        2.894 s, elapsed        2.909 s
  | RMS charge density error from multipole expansion :   0.703169E-02

  Integrating Hamiltonian matrix: batch-based integration.
  Time summed over all CPUs for integration: real work        7.765 s, elapsed        7.934 s

  Updating Kohn-Sham eigenvalues, eigenvectors, occupation numbers, and Fermi level.
  Solving generalized eigenproblem
  Updating Kohn-Sham eigenvalues and eigenfunctions.
  Solving real generalised eigenvalue problem by standard LAPACK (fast)
  Determining occupation numbers for Kohn-Sham eigenstates.
  | Chemical potential (Fermi level) in eV                 : -.20571796E+01
  | Error in electron count due to remaining E_F inaccuracy: 0.22836844E-10
  | Maximum occupation number of highest empty state:  0.00E+00

  Highest occupied state (VBM) at     -2.05717956 eV
  | Occupation number:      1.00000000

  Lowest unoccupied state (CBM) at    -1.23139361 eV
  | Occupation number:      0.00000000

  Overall HOMO-LUMO gap:      0.82578595 eV.

  Total energy components:
  | Sum of eigenvalues            :        -210.82254543 Ha       -5736.77334488 eV
  | XC energy correction          :         -46.76461080 Ha       -1272.52980541 eV
  | XC potential correction       :          59.78550738 Ha        1626.84642874 eV
  | Free-atom electrostatic energy:        -178.31855165 Ha       -4852.29467241 eV
  | Hartree energy correction     :          -7.15690033 Ha        -194.74916662 eV
  | van der Waals energy corr.    :           0.00000000 Ha           0.00000000 eV
  | Entropy correction            :          -0.00010367 Ha          -0.00282095 eV
  | ---------------------------
  | Total energy                  :        -383.27710082 Ha      -10429.50056058 eV
  | Total energy, T -> 0          :        -383.27720449 Ha      -10429.50338153 eV  <-- do not rely on this value for anything but (periodic) metals
  | Electronic free energy        :        -383.27730816 Ha      -10429.50620248 eV

  Derived energy quantities:
  | Kinetic energy                :         384.21248821 Ha       10454.95374651 eV
  | Electrostatic energy          :        -720.72497824 Ha      -19611.92450168 eV
  | Energy correction for multipole
  | error in Hartree potential    :           0.00028042 Ha           0.00763068 eV
  | Sum of eigenvalues per atom                           :        -358.54833405 eV
  | Total energy (T->0) per atom                          :        -651.84396135 eV  <-- do not rely on this value for anything but (periodic) metals
  | Electronic free energy per atom                       :        -651.84413765 eV

  Self-consistency convergence accuracy:
  | Change of charge density      : 0.4982E+00
  | Change of sum of eigenvalues  : 0.1384E+03 eV
  | Change of total energy        : 0.4062E+01 eV

  End self-consistency iteration #     2       :  max(cpu_time)    wall_clock(cpu1)
  | Time for this iteration                    :        2.089 s           2.089 s
  | Charge density update                      :        0.662 s           0.662 s
  | Density mixing                             :        0.006 s           0.006 s
  | Hartree multipole update                   :        0.005 s           0.005 s
  | Hartree multipole summation                :        0.365 s           0.365 s
  | Integration                                :        0.993 s           0.993 s
  | Solution of K.-S. eqns.                    :        0.057 s           0.057 s
  | Total energy evaluation                    :        0.001 s           0.001 s
------------------------------------------------------------

------------------------------------------------------------
          Begin self-consistency iteration #    3

  Date     :  20150727, Time     :  120811.608
------------------------------------------------------------
  Evaluating new KS density.
  Integration grid: deviation in total charge (<rho> - N_e) =   2.286527E-11
  Pulay mixing of updated and previous charge densities.

  Evaluating partitioned Hartree potential by multipole expansion.
  | Analytical far-field extrapolation by fixed multipoles:
  | Hartree multipole sum: apparent total charge =  -0.363990E-05
  Summing up the Hartree potential.
  Time summed over all CPUs for potential: real work        2.894 s, elapsed        2.909 s
  | RMS charge density error from multipole expansion :   0.142059E-01

  Integrating Hamiltonian matrix: batch-based integration.
  Time summed over all CPUs for integration: real work        7.765 s, elapsed        7.908 s

  Updating Kohn-Sham eigenvalues, eigenvectors, occupation numbers, and Fermi level.
  Solving generalized eigenproblem
  Updating Kohn-Sham eigenvalues and eigenfunctions.
  Solving real generalised eigenvalue problem by standard LAPACK (fast)
  Determining occupation numbers for Kohn-Sham eigenstates.
  | Chemical potential (Fermi level) in eV                 : -.20050056E+01
  | Error in electron count due to remaining E_F inaccuracy: -.89528385E-12
  | Maximum occupation number of highest empty state:  0.00E+00

  Highest occupied state (VBM) at     -7.64493683 eV
  | Occupation number:      2.00000000

  Lowest unoccupied state (CBM) at    -2.00500560 eV
  | Occupation number:      1.00000000

  Overall HOMO-LUMO gap:      5.63993123 eV.

  Total energy components:
  | Sum of eigenvalues            :        -211.32697730 Ha       -5750.49963457 eV
  | XC energy correction          :         -46.73327067 Ha       -1271.67699712 eV
  | XC potential correction       :          59.73604369 Ha        1625.50045329 eV
  | Free-atom electrostatic energy:        -178.31855165 Ha       -4852.29467241 eV
  | Hartree energy correction     :          -6.63404392 Ha        -180.52151986 eV
  | van der Waals energy corr.    :           0.00000000 Ha           0.00000000 eV
  | Entropy correction            :          -0.00010367 Ha          -0.00282095 eV
  | ---------------------------
  | Total energy                  :        -383.27679985 Ha      -10429.49237066 eV
  | Total energy, T -> 0          :        -383.27690352 Ha      -10429.49519161 eV  <-- do not rely on this value for anything but (periodic) metals
  | Electronic free energy        :        -383.27700719 Ha      -10429.49801256 eV

  Derived energy quantities:
  | Kinetic energy                :         382.24438283 Ha       10401.39887427 eV
  | Electrostatic energy          :        -718.78791202 Ha      -19559.21424782 eV
  | Energy correction for multipole
  | error in Hartree potential    :          -0.00369008 Ha          -0.10041229 eV
  | Sum of eigenvalues per atom                           :        -359.40622716 eV
  | Total energy (T->0) per atom                          :        -651.84344948 eV  <-- do not rely on this value for anything but (periodic) metals
  | Electronic free energy per atom                       :        -651.84362579 eV

  Self-consistency convergence accuracy:
  | Change of charge density      : 0.2412E+00
  | Change of sum of eigenvalues  : -.1373E+02 eV
  | Change of total energy        : 0.8190E-02 eV

  End self-consistency iteration #     3       :  max(cpu_time)    wall_clock(cpu1)
  | Time for this iteration                    :        2.082 s           2.082 s
  | Charge density update                      :        0.657 s           0.657 s
  | Density mixing                             :        0.007 s           0.008 s
  | Hartree multipole update                   :        0.005 s           0.005 s
  | Hartree multipole summation                :        0.364 s           0.364 s
  | Integration                                :        0.991 s           0.990 s
  | Solution of K.-S. eqns.                    :        0.057 s           0.057 s
  | Total energy evaluation                    :        0.000 s           0.000 s
------------------------------------------------------------

------------------------------------------------------------
          Begin self-consistency iteration #    4

  Date     :  20150727, Time     :  120813.690
------------------------------------------------------------
  Evaluating new KS density.
  Integration grid: deviation in total charge (<rho> - N_e) =  -8.526513E-13
  Pulay mixing of updated and previous charge densities.

  Evaluating partitioned Hartree potential by multipole expansion.
  | Analytical far-field extrapolation by fixed multipoles:
  | Hartree multipole sum: apparent total charge =  -0.441622E-05
  Summing up the Hartree potential.
  Time summed over all CPUs for potential: real work        2.893 s, elapsed        2.908 s
  | RMS charge density error from multipole expansion :   0.176697E-01

  Integrating Hamiltonian matrix: batch-based integration.
  Time summed over all CPUs for integration: real work        7.757 s, elapsed        7.903 s

  Updating Kohn-Sham eigenvalues, eigenvectors, occupation numbers, and Fermi level.
  Solving generalized eigenproblem
  Updating Kohn-Sham eigenvalues and eigenfunctions.
  Solving real generalised eigenvalue problem by standard LAPACK (fast)
  Determining occupation numbers for Kohn-Sham eigenstates.
  | Chemical potential (Fermi level) in eV                 : -.18691706E+01
  | Error in electron count due to remaining E_F inaccuracy: -.53901772E-10
  | Maximum occupation number of highest empty state:  0.00E+00

  Highest occupied state (VBM) at     -6.88066101 eV
  | Occupation number:      2.00000000

  Lowest unoccupied state (CBM) at    -1.86917062 eV
  | Occupation number:      1.00000000

  Overall HOMO-LUMO gap:      5.01149038 eV.

  Total energy components:
  | Sum of eigenvalues            :        -210.14632752 Ha       -5718.37251945 eV
  | XC energy correction          :         -46.89225033 Ha       -1276.00305379 eV
  | XC potential correction       :          59.94130807 Ha        1631.08598135 eV
  | Free-atom electrostatic energy:        -178.31855165 Ha       -4852.29467241 eV
  | Hartree energy correction     :          -7.85299154 Ha        -213.69077218 eV
  | van der Waals energy corr.    :           0.00000000 Ha           0.00000000 eV
  | Entropy correction            :          -0.00010367 Ha          -0.00282095 eV
  | ---------------------------
  | Total energy                  :        -383.26881297 Ha      -10429.27503648 eV
  | Total energy, T -> 0          :        -383.26891663 Ha      -10429.27785743 eV  <-- do not rely on this value for anything but (periodic) metals
  | Electronic free energy        :        -383.26902030 Ha      -10429.28067838 eV

  Derived energy quantities:
  | Kinetic energy                :         382.42637853 Ha       10406.35122905 eV
  | Electrostatic energy          :        -718.80294116 Ha      -19559.62321174 eV
  | Energy correction for multipole
  | error in Hartree potential    :          -0.00489844 Ha          -0.13329320 eV
  | Sum of eigenvalues per atom                           :        -357.39828247 eV
  | Total energy (T->0) per atom                          :        -651.82986609 eV  <-- do not rely on this value for anything but (periodic) metals
  | Electronic free energy per atom                       :        -651.83004240 eV

  Self-consistency convergence accuracy:
  | Change of charge density      : 0.1233E+00
  | Change of sum of eigenvalues  : 0.3213E+02 eV
  | Change of total energy        : 0.2173E+00 eV

  End self-consistency iteration #     4       :  max(cpu_time)    wall_clock(cpu1)
  | Time for this iteration                    :        2.083 s           2.082 s
  | Charge density update                      :        0.657 s           0.657 s
  | Density mixing                             :        0.008 s           0.009 s
  | Hartree multipole update                   :        0.005 s           0.005 s
  | Hartree multipole summation                :        0.365 s           0.364 s
  | Integration                                :        0.990 s           0.990 s
  | Solution of K.-S. eqns.                    :        0.056 s           0.057 s
  | Total energy evaluation                    :        0.000 s           0.000 s
------------------------------------------------------------

------------------------------------------------------------
          Begin self-consistency iteration #    5

  Date     :  20150727, Time     :  120815.772
------------------------------------------------------------
  Evaluating new KS density.
  Integration grid: deviation in total charge (<rho> - N_e) =  -5.391598E-11
  Pulay mixing of updated and previous charge densities.

  Evaluating partitioned Hartree potential by multipole expansion.
  | Analytical far-field extrapolation by fixed multipoles:
  | Hartree multipole sum: apparent total charge =  -0.469255E-05
  Summing up the Hartree potential.
  Time summed over all CPUs for potential: real work        2.893 s, elapsed        2.908 s
  | RMS charge density error from multipole expansion :   0.183862E-01

  Integrating Hamiltonian matrix: batch-based integration.
  Time summed over all CPUs for integration: real work        7.753 s, elapsed        7.898 s

  Updating Kohn-Sham eigenvalues, eigenvectors, occupation numbers, and Fermi level.
  Solving generalized eigenproblem
  Updating Kohn-Sham eigenvalues and eigenfunctions.
  Solving real generalised eigenvalue problem by standard LAPACK (fast)
  Determining occupation numbers for Kohn-Sham eigenstates.
  | Chemical potential (Fermi level) in eV                 : -.18613494E+01
  | Error in electron count due to remaining E_F inaccuracy: 0.13828654E-08
  | Maximum occupation number of highest empty state:  0.00E+00

  Highest occupied state (VBM) at     -1.86134942 eV
  | Occupation number:      1.00000000

  Lowest unoccupied state (CBM) at    -1.08348278 eV
  | Occupation number:      0.00000000

  Overall HOMO-LUMO gap:      0.77786664 eV.

  Total energy components:
  | Sum of eigenvalues            :        -209.99347722 Ha       -5714.21325100 eV
  | XC energy correction          :         -46.91478749 Ha       -1276.61632126 eV
  | XC potential correction       :          59.96997864 Ha        1631.86614710 eV
  | Free-atom electrostatic energy:        -178.31855165 Ha       -4852.29467241 eV
  | Hartree energy correction     :          -8.01166173 Ha        -218.00840777 eV
  | van der Waals energy corr.    :           0.00000000 Ha           0.00000000 eV
  | Entropy correction            :          -0.00010367 Ha          -0.00282095 eV
  | ---------------------------
  | Total energy                  :        -383.26849945 Ha      -10429.26650534 eV
  | Total energy, T -> 0          :        -383.26860312 Ha      -10429.26932629 eV  <-- do not rely on this value for anything but (periodic) metals
  | Electronic free energy        :        -383.26870679 Ha      -10429.27214724 eV

  Derived energy quantities:
  | Kinetic energy                :         382.47439654 Ha       10407.65786576 eV
  | Electrostatic energy          :        -718.82810850 Ha      -19560.30804984 eV
  | Energy correction for multipole
  | error in Hartree potential    :          -0.00523020 Ha          -0.14232107 eV
  | Sum of eigenvalues per atom                           :        -357.13832819 eV
  | Total energy (T->0) per atom                          :        -651.82933289 eV  <-- do not rely on this value for anything but (periodic) metals
  | Electronic free energy per atom                       :        -651.82950920 eV

  Self-consistency convergence accuracy:
  | Change of charge density      : 0.3065E-01
  | Change of sum of eigenvalues  : 0.4159E+01 eV
  | Change of total energy        : 0.8531E-02 eV

  End self-consistency iteration #     5       :  max(cpu_time)    wall_clock(cpu1)
  | Time for this iteration                    :        2.082 s           2.082 s
  | Charge density update                      :        0.656 s           0.656 s
  | Density mixing                             :        0.010 s           0.010 s
  | Hartree multipole update                   :        0.005 s           0.005 s
  | Hartree multipole summation                :        0.364 s           0.365 s
  | Integration                                :        0.989 s           0.989 s
  | Solution of K.-S. eqns.                    :        0.057 s           0.057 s
  | Total energy evaluation                    :        0.000 s           0.000 s
------------------------------------------------------------

------------------------------------------------------------
          Begin self-consistency iteration #    6

  Date     :  20150727, Time     :  120817.854
------------------------------------------------------------
  Evaluating new KS density.
  Integration grid: deviation in total charge (<rho> - N_e) =   1.382858E-09
  Pulay mixing of updated and previous charge densities.

  Evaluating partitioned Hartree potential by multipole expansion.
  | Analytical far-field extrapolation by fixed multipoles:
  | Hartree multipole sum: apparent total charge =  -0.469047E-05
  Summing up the Hartree potential.
  Time summed over all CPUs for potential: real work        2.893 s, elapsed        2.909 s
  | RMS charge density error from multipole expansion :   0.186123E-01

  Integrating Hamiltonian matrix: batch-based integration.
  Time summed over all CPUs for integration: real work        7.753 s, elapsed        7.903 s

  Updating Kohn-Sham eigenvalues, eigenvectors, occupation numbers, and Fermi level.
  Solving generalized eigenproblem
  Updating Kohn-Sham eigenvalues and eigenfunctions.
  Solving real generalised eigenvalue problem by standard LAPACK (fast)
  Determining occupation numbers for Kohn-Sham eigenstates.
  | Chemical potential (Fermi level) in eV                 : -.18610626E+01
  | Error in electron count due to remaining E_F inaccuracy: -.25579538E-12
  | Maximum occupation number of highest empty state:  0.00E+00

  Highest occupied state (VBM) at     -6.70980384 eV
  | Occupation number:      2.00000000

  Lowest unoccupied state (CBM) at    -1.86106260 eV
  | Occupation number:      1.00000000

  Overall HOMO-LUMO gap:      4.84874125 eV.

  Total energy components:
  | Sum of eigenvalues            :        -209.99201536 Ha       -5714.17347178 eV
  | XC energy correction          :         -46.91663182 Ha       -1276.66650801 eV
  | XC potential correction       :          59.97210765 Ha        1631.92408056 eV
  | Free-atom electrostatic energy:        -178.31855165 Ha       -4852.29467241 eV
  | Hartree energy correction     :          -8.01342612 Ha        -218.05641923 eV
  | van der Waals energy corr.    :           0.00000000 Ha           0.00000000 eV
  | Entropy correction            :          -0.00010367 Ha          -0.00282095 eV
  | ---------------------------
  | Total energy                  :        -383.26851730 Ha      -10429.26699087 eV
  | Total energy, T -> 0          :        -383.26862096 Ha      -10429.26981182 eV  <-- do not rely on this value for anything but (periodic) metals
  | Electronic free energy        :        -383.26872463 Ha      -10429.27263276 eV

  Derived energy quantities:
  | Kinetic energy                :         382.45716172 Ha       10407.18888233 eV
  | Electrostatic energy          :        -718.80904719 Ha      -19559.78936519 eV
  | Energy correction for multipole
  | error in Hartree potential    :          -0.00534911 Ha          -0.14555668 eV
  | Sum of eigenvalues per atom                           :        -357.13584199 eV
  | Total energy (T->0) per atom                          :        -651.82936324 eV  <-- do not rely on this value for anything but (periodic) metals
  | Electronic free energy per atom                       :        -651.82953955 eV

  Self-consistency convergence accuracy:
  | Change of charge density      : 0.8026E-02
  | Change of sum of eigenvalues  : 0.3978E-01 eV
  | Change of total energy        : -.4855E-03 eV

  End self-consistency iteration #     6       :  max(cpu_time)    wall_clock(cpu1)
  | Time for this iteration                    :        2.086 s           2.086 s
  | Charge density update                      :        0.657 s           0.657 s
  | Density mixing                             :        0.012 s           0.012 s
  | Hartree multipole update                   :        0.005 s           0.005 s
  | Hartree multipole summation                :        0.364 s           0.364 s
  | Integration                                :        0.990 s           0.990 s
  | Solution of K.-S. eqns.                    :        0.058 s           0.057 s
  | Total energy evaluation                    :        0.000 s           0.001 s
------------------------------------------------------------

------------------------------------------------------------
          Begin self-consistency iteration #    7

  Date     :  20150727, Time     :  120819.940
------------------------------------------------------------
  Evaluating new KS density.
  Integration grid: deviation in total charge (<rho> - N_e) =  -2.486900E-13
  Pulay mixing of updated and previous charge densities.

  Evaluating partitioned Hartree potential by multipole expansion.
  | Analytical far-field extrapolation by fixed multipoles:
  | Hartree multipole sum: apparent total charge =  -0.467821E-05
  Summing up the Hartree potential.
  Time summed over all CPUs for potential: real work        2.893 s, elapsed        2.909 s
  | RMS charge density error from multipole expansion :   0.186663E-01

  Integrating Hamiltonian matrix: batch-based integration.
  Time summed over all CPUs for integration: real work        7.755 s, elapsed        7.900 s

  Updating Kohn-Sham eigenvalues, eigenvectors, occupation numbers, and Fermi level.
  Solving generalized eigenproblem
  Updating Kohn-Sham eigenvalues and eigenfunctions.
  Solving real generalised eigenvalue problem by standard LAPACK (fast)
  Determining occupation numbers for Kohn-Sham eigenstates.
  | Chemical potential (Fermi level) in eV                 : -.18696866E+01
  | Error in electron count due to remaining E_F inaccuracy: 0.15779449E-08
  | Maximum occupation number of highest empty state:  0.00E+00

  Highest occupied state (VBM) at     -1.86968662 eV
  | Occupation number:      1.00000000

  Lowest unoccupied state (CBM) at    -1.09148008 eV
  | Occupation number:      0.00000000

  Overall HOMO-LUMO gap:      0.77820654 eV.

  Total energy components:
  | Sum of eigenvalues            :        -210.04598529 Ha       -5715.64206851 eV
  | XC energy correction          :         -46.91096694 Ha       -1276.51235871 eV
  | XC potential correction       :          59.96441204 Ha        1631.71467231 eV
  | Free-atom electrostatic energy:        -178.31855165 Ha       -4852.29467241 eV
  | Hartree energy correction     :          -7.95739096 Ha        -216.53162494 eV
  | van der Waals energy corr.    :           0.00000000 Ha           0.00000000 eV
  | Entropy correction            :          -0.00010367 Ha          -0.00282095 eV
  | ---------------------------
  | Total energy                  :        -383.26848280 Ha      -10429.26605227 eV
  | Total energy, T -> 0          :        -383.26858647 Ha      -10429.26887321 eV  <-- do not rely on this value for anything but (periodic) metals
  | Electronic free energy        :        -383.26869014 Ha      -10429.27169416 eV

  Derived energy quantities:
  | Kinetic energy                :         382.48490949 Ha       10407.94393753 eV
  | Electrostatic energy          :        -718.84242535 Ha      -19560.69763108 eV
  | Energy correction for multipole
  | error in Hartree potential    :          -0.00539903 Ha          -0.14691521 eV
  | Sum of eigenvalues per atom                           :        -357.22762928 eV
  | Total energy (T->0) per atom                          :        -651.82930458 eV  <-- do not rely on this value for anything but (periodic) metals
  | Electronic free energy per atom                       :        -651.82948089 eV

  Self-consistency convergence accuracy:
  | Change of charge density      : 0.6928E-02
  | Change of sum of eigenvalues  : -.1469E+01 eV
  | Change of total energy        : 0.9386E-03 eV

  End self-consistency iteration #     7       :  max(cpu_time)    wall_clock(cpu1)
  | Time for this iteration                    :        2.088 s           2.087 s
  | Charge density update                      :        0.658 s           0.657 s
  | Density mixing                             :        0.013 s           0.013 s
  | Hartree multipole update                   :        0.005 s           0.005 s
  | Hartree multipole summation                :        0.364 s           0.365 s
  | Integration                                :        0.989 s           0.989 s
  | Solution of K.-S. eqns.                    :        0.057 s           0.058 s
  | Total energy evaluation                    :        0.000 s           0.000 s
------------------------------------------------------------

------------------------------------------------------------
          Begin self-consistency iteration #    8

  Date     :  20150727, Time     :  120822.027
------------------------------------------------------------
  Evaluating new KS density.
  Integration grid: deviation in total charge (<rho> - N_e) =   1.577959E-09
  Pulay mixing of updated and previous charge densities.

  Evaluating partitioned Hartree potential by multipole expansion.
  | Analytical far-field extrapolation by fixed multipoles:
  | Hartree multipole sum: apparent total charge =  -0.470082E-05
  Summing up the Hartree potential.
  Time summed over all CPUs for potential: real work        2.893 s, elapsed        2.909 s
  | RMS charge density error from multipole expansion :   0.186826E-01

  Integrating Hamiltonian matrix: batch-based integration.
  Time summed over all CPUs for integration: real work        7.746 s, elapsed        7.900 s

  Updating Kohn-Sham eigenvalues, eigenvectors, occupation numbers, and Fermi level.
  Solving generalized eigenproblem
  Updating Kohn-Sham eigenvalues and eigenfunctions.
  Solving real generalised eigenvalue problem by standard LAPACK (fast)
  Determining occupation numbers for Kohn-Sham eigenstates.
  | Chemical potential (Fermi level) in eV                 : -.18771115E+01
  | Error in electron count due to remaining E_F inaccuracy: 0.50822280E-09
  | Maximum occupation number of highest empty state:  0.00E+00

  Highest occupied state (VBM) at     -1.87711147 eV
  | Occupation number:      1.00000000

  Lowest unoccupied state (CBM) at    -1.09762043 eV
  | Occupation number:      0.00000000

  Overall HOMO-LUMO gap:      0.77949104 eV.

  Total energy components:
  | Sum of eigenvalues            :        -210.08059700 Ha       -5716.58390103 eV
  | XC energy correction          :         -46.90740386 Ha       -1276.41540225 eV
  | XC potential correction       :          59.95960796 Ha        1631.58394664 eV
  | Free-atom electrostatic energy:        -178.31855165 Ha       -4852.29467241 eV
  | Hartree energy correction     :          -7.92153018 Ha        -215.55580366 eV
  | van der Waals energy corr.    :           0.00000000 Ha           0.00000000 eV
  | Entropy correction            :          -0.00010367 Ha          -0.00282095 eV
  | ---------------------------
  | Total energy                  :        -383.26847473 Ha      -10429.26583270 eV
  | Total energy, T -> 0          :        -383.26857840 Ha      -10429.26865365 eV  <-- do not rely on this value for anything but (periodic) metals
  | Electronic free energy        :        -383.26868207 Ha      -10429.27147459 eV

  Derived energy quantities:
  | Kinetic energy                :         382.49765344 Ha       10408.29071819 eV
  | Electrostatic energy          :        -718.85872432 Ha      -19561.14114865 eV
  | Energy correction for multipole
  | error in Hartree potential    :          -0.00542318 Ha          -0.14757221 eV
  | Sum of eigenvalues per atom                           :        -357.28649381 eV
  | Total energy (T->0) per atom                          :        -651.82929085 eV  <-- do not rely on this value for anything but (periodic) metals
  | Electronic free energy per atom                       :        -651.82946716 eV

  Self-consistency convergence accuracy:
  | Change of charge density      : 0.3236E-02
  | Change of sum of eigenvalues  : -.9418E+00 eV
  | Change of total energy        : 0.2196E-03 eV

  End self-consistency iteration #     8       :  max(cpu_time)    wall_clock(cpu1)
  | Time for this iteration                    :        2.087 s           2.087 s
  | Charge density update                      :        0.656 s           0.657 s
  | Density mixing                             :        0.015 s           0.014 s
  | Hartree multipole update                   :        0.005 s           0.005 s
  | Hartree multipole summation                :        0.364 s           0.364 s
  | Integration                                :        0.990 s           0.990 s
  | Solution of K.-S. eqns.                    :        0.057 s           0.057 s
  | Total energy evaluation                    :        0.000 s           0.000 s
------------------------------------------------------------

------------------------------------------------------------
          Begin self-consistency iteration #    9

  Date     :  20150727, Time     :  120824.114
------------------------------------------------------------
  Evaluating new KS density.
  Integration grid: deviation in total charge (<rho> - N_e) =   5.082654E-10
  Pulay mixing of updated and previous charge densities.

  Evaluating partitioned Hartree potential by multipole expansion.
  | Analytical far-field extrapolation by fixed multipoles:
  | Hartree multipole sum: apparent total charge =  -0.469374E-05
  Summing up the Hartree potential.
  Time summed over all CPUs for potential: real work        2.893 s, elapsed        2.909 s
  | RMS charge density error from multipole expansion :   0.186592E-01

  Integrating Hamiltonian matrix: batch-based integration.
  Time summed over all CPUs for integration: real work        7.758 s, elapsed        7.926 s

  Updating Kohn-Sham eigenvalues, eigenvectors, occupation numbers, and Fermi level.
  Solving generalized eigenproblem
  Updating Kohn-Sham eigenvalues and eigenfunctions.
  Solving real generalised eigenvalue problem by standard LAPACK (fast)
  Determining occupation numbers for Kohn-Sham eigenstates.
  | Chemical potential (Fermi level) in eV                 : -.18785656E+01
  | Error in electron count due to remaining E_F inaccuracy: 0.39328540E-10
  | Maximum occupation number of highest empty state:  0.00E+00

  Highest occupied state (VBM) at     -1.87856557 eV
  | Occupation number:      1.00000000

  Lowest unoccupied state (CBM) at    -1.09906934 eV
  | Occupation number:      0.00000000

  Overall HOMO-LUMO gap:      0.77949623 eV.

  Total energy components:
  | Sum of eigenvalues            :        -210.08475680 Ha       -5716.69709478 eV
  | XC energy correction          :         -46.90692456 Ha       -1276.40235996 eV
  | XC potential correction       :          59.95898894 Ha        1631.56710223 eV
  | Free-atom electrostatic energy:        -178.31855165 Ha       -4852.29467241 eV
  | Hartree energy correction     :          -7.91722848 Ha        -215.43874846 eV
[...]
   Van der Waals               : 0.493058E-03 0.339585E-02 -.184442E-03
   ----------------------------------------------------------------
   Total forces(   7)            : 0.149756E+00 0.458310E+00 0.301565E+00
  atom #    8
   Hellmann-Feynman + Multipole  : -.650158E+01 -.694537E+01 0.905686E+01
   Pulay + GGA                   : 0.698648E+01 0.624373E+01 -.601454E+01
   Van der Waals               : -.188866E-02 0.650860E-02 0.616450E-02
   ----------------------------------------------------------------
   Total forces(   8)            : 0.483006E+00 -.695126E+00 0.304849E+01
  atom #    9
   Hellmann-Feynman + Multipole  : -.544471E-01 -.741455E-01 -.756775E-01
   Pulay + GGA                   : 0.573479E-01 0.128305E+00 0.392134E-01
   Van der Waals               : 0.451354E-03 0.403794E-02 0.261642E-02
   ----------------------------------------------------------------
   Total forces(   9)            : 0.335209E-02 0.581975E-01 -.338476E-01
  atom #   10
   Hellmann-Feynman + Multipole  : -.318033E+00 0.428067E+00 -.277341E+01
   Pulay + GGA                   : -.349380E-01 0.235209E-01 -.136787E+00
   Van der Waals               : -.521775E-03 0.195644E-02 0.198771E-02
   ----------------------------------------------------------------
   Total forces(  10)            : -.353493E+00 0.453544E+00 -.290821E+01
  atom #   11
   Hellmann-Feynman + Multipole  : -.229107E+01 -.304649E+01 -.167150E+02
   Pulay + GGA                   : 0.303246E+01 0.330210E+01 0.148829E+02
   Van der Waals               : -.130178E-01 -.472549E-02 -.259707E-02
   ----------------------------------------------------------------
   Total forces(  11)            : 0.728371E+00 0.250885E+00 -.183467E+01
  atom #   12
   Hellmann-Feynman + Multipole  : -.383274E+00 -.211073E+00 0.381021E+00
   Pulay + GGA                   : 0.111879E+00 0.727045E-01 0.528441E-01
   Van der Waals               : -.462313E-02 -.185199E-02 -.122764E-02
   ----------------------------------------------------------------
   Total forces(  12)            : -.276018E+00 -.140221E+00 0.432637E+00
  atom #   13
   Hellmann-Feynman + Multipole  : -.420544E+00 -.349269E-01 0.124181E+01
   Pulay + GGA                   : -.809871E-01 -.628764E-01 0.995414E-01
   Van der Waals               : -.690141E-03 -.518647E-02 -.542678E-02
   ----------------------------------------------------------------
   Total forces(  13)            : -.502221E+00 -.102990E+00 0.133593E+01
  atom #   14
   Hellmann-Feynman + Multipole  : 0.127777E+01 -.158460E+02 0.171052E+01
   Pulay + GGA                   : -.377488E-01 0.157479E+02 -.335905E+01
   Van der Waals               : 0.434650E-02 -.778694E-02 -.618729E-02
   ----------------------------------------------------------------
   Total forces(  14)            : 0.124437E+01 -.105883E+00 -.165472E+01
  atom #   15
   Hellmann-Feynman + Multipole  : -.290933E+00 0.633569E+00 0.247599E+00
   Pulay + GGA                   : -.812208E-01 0.943465E-01 0.923887E-01
   Van der Waals               : 0.239440E-02 -.257133E-02 -.197657E-02
   ----------------------------------------------------------------
   Total forces(  15)            : -.369760E+00 0.725344E+00 0.338011E+00
  atom #   16
   Hellmann-Feynman + Multipole  : -.872116E+00 -.755130E+00 0.146343E+01
   Pulay + GGA                   : 0.513650E-01 0.743569E-01 -.127528E+00
   Van der Waals               : -.279839E-03 -.400647E-02 -.182994E-02
   ----------------------------------------------------------------
   Total forces(  16)            : -.821031E+00 -.684779E+00 0.133407E+01
  Timings for vdw_correction_hirshfeld (Tkatchenko-Scheffler 2009):
  | CPU time:        5.574 s, Wall clock time:        5.575 s.
  Removing unitary transformations (pure translations, rotations) from forces on atoms.
  Atomic forces before filtering:
  | Net force on center of mass :  0.610288E-02 0.214119E-02 -.103188E-01 eV/A
  | Net torque on center of mass:  0.151787E-01 -.724212E-03 -.959370E-02 eV
  Atomic forces after filtering:
  | Net force on center of mass :  0.178406E-15 0.000000E+00 0.178406E-15 eV/A
  | Net torque on center of mass:  -.755268E-15 0.188817E-14 0.944085E-15 eV
 
  Energy and forces in a compact form:
  | Total energy uncorrected      :         -0.104293556050952E+05 eV
  | Total energy corrected        :         -0.104293584260431E+05 eV  <-- do not rely on this value for anything but (periodic) metals
  | Electronic free energy        :         -0.104293612469910E+05 eV
  Total atomic forces (unitary forces cleaned) [eV/Ang]:
  |   1          0.557549583177329E+00          0.127043418322835E+01         -0.145594401041152E+01
  |   2          0.238611320154309E+00         -0.552675134869529E+00          0.143559487397833E+00
  |   3         -0.742571126502531E+00         -0.278886851744586E+00          0.610115617306613E-01
  |   4         -0.206746976993597E-01         -0.156917526872340E+00          0.990146220933434E+00
  |   5         -0.199750638053667E+00         -0.154697881760784E+01         -0.120494284528440E+01
  |   6         -0.114536708279899E+00          0.104884065275610E+01          0.110212352789124E+01
  |   7          0.149732487255427E+00          0.458286265919454E+00          0.302687453921329E+00
  |   8          0.482526676805490E+00         -0.695760101203992E+00          0.304909420023162E+01
  |   9          0.278198303149393E-02          0.576836782051878E-01         -0.333896899374141E-01
  |  10         -0.354012064693342E+00          0.452734115928700E+00         -0.290762095833217E+01
  |  11          0.727879216678917E+00          0.251153243930039E+00         -0.183426319535921E+01
  |  12         -0.276566236593047E+00         -0.139799993371540E+00          0.432935778496961E+00
  |  13         -0.502659302733900E+00         -0.102668693362089E+00          0.133639956831794E+01
  |  14          0.124378755590426E+01         -0.105908579227885E+00         -0.165437089855890E+01
  |  15         -0.370411433397561E+00          0.725344129143612E+00          0.338250454546069E+00
  |  16         -0.821686615053915E+00         -0.684880570851638E+00          0.133432334441652E+01
 
  ------------------------------------ 
  Start decomposition of the XC Energy 
  ------------------------------------ 
  Hartree-Fock part   :          0.000000000 Ha              0.000000000 eV
  ------------------------------------ 
  X Energy            :        -45.252060150 Ha          -1231.371208168 eV
  C Energy GGA        :         -1.654879858 Ha            -45.031572104 eV
  Total XC Energy     :        -46.906940008 Ha          -1276.402780272 eV
  LDA X and C from self-consistent density 
  X Energy LDA        :        -40.779793129 Ha          -1109.674630665 eV
  C Energy LDA        :         -3.338822617 Ha            -90.853986000 eV
  ------------------------------------ 
  End decomposition of the XC Energy 
  ------------------------------------ 
  Performing Hirshfeld analysis of fragment charges and moments.
  ----------------------------------------------------------------------
  | Atom     1: O
  |   Hirshfeld charge        :     -0.13264331
  |   Free atom volume        :     23.95238533
  |   Hirshfeld volume        :     21.73776643
  |   Hirshfeld dipole vector :     -0.00139526       0.02854953       0.02809679
  |   Hirshfeld dipole moment :      0.04008057
  |   Hirshfeld second moments:      0.08716152      -0.00396279      -0.00484999
  |                                 -0.00396279       0.04026948      -0.02427901
  |                                 -0.00484999      -0.02427901       0.05284971
  ----------------------------------------------------------------------
  | Atom     2: H
  |   Hirshfeld charge        :      0.10992695
  |   Free atom volume        :     10.44207651
  |   Hirshfeld volume        :      9.81592333
  |   Hirshfeld dipole vector :     -0.00943406       0.01054729       0.00357264
  |   Hirshfeld dipole moment :      0.01459488
  |   Hirshfeld second moments:      0.04005464       0.01528668       0.00172505
  |                                  0.01528668       0.02548368       0.01030642
  |                                  0.00172505       0.01030642       0.05663988
  ----------------------------------------------------------------------
  | Atom     3: H
  |   Hirshfeld charge        :      0.12744028
  |   Free atom volume        :     10.44207651
  |   Hirshfeld volume        :     11.18623360
  |   Hirshfeld dipole vector :      0.03368306       0.01049181       0.01075000
  |   Hirshfeld dipole moment :      0.03688074
  |   Hirshfeld second moments:      0.00320401      -0.01520502      -0.00098114
  |                                 -0.01520502       0.03198254       0.00493800
  |                                 -0.00098114       0.00493800       0.03719194
  ----------------------------------------------------------------------
  | Atom     4: H
  |   Hirshfeld charge        :      0.10661990
  |   Free atom volume        :     10.44207651
  |   Hirshfeld volume        :      9.41325244
  |   Hirshfeld dipole vector :     -0.01697816       0.00324243       0.01723834
  |   Hirshfeld dipole moment :      0.02441171
  |   Hirshfeld second moments:      0.06279481       0.00817496       0.00873996
  |                                  0.00817496       0.06311943       0.00414422
  |                                  0.00873996       0.00414422       0.01895653
  ----------------------------------------------------------------------
  | Atom     5: O
  |   Hirshfeld charge        :     -0.22538417
  |   Free atom volume        :     23.95238533
  |   Hirshfeld volume        :     22.13997541
  |   Hirshfeld dipole vector :     -0.02728468       0.02495156      -0.00404202
  |   Hirshfeld dipole moment :      0.03719372
  |   Hirshfeld second moments:      0.02221781       0.05197819      -0.01203232
  |                                  0.05197819       0.03357211       0.01716542
  |                                 -0.01203232       0.01716542       0.05309109
  ----------------------------------------------------------------------
  | Atom     6: H
  |   Hirshfeld charge        :      0.12103700
  |   Free atom volume        :     10.44207651
  |   Hirshfeld volume        :      9.64252980
  |   Hirshfeld dipole vector :      0.02211283       0.06549609       0.03720068
  |   Hirshfeld dipole moment :      0.07850227
  |   Hirshfeld second moments:      0.04920781       0.02379295      -0.00613888
  |                                  0.02379295       0.04915201      -0.00545559
  |                                 -0.00613888      -0.00545559       0.05575118
  ----------------------------------------------------------------------
  | Atom     7: H
  |   Hirshfeld charge        :      0.12581766
  |   Free atom volume        :     10.44207651
  |   Hirshfeld volume        :     10.41727980
  |   Hirshfeld dipole vector :     -0.06213916      -0.03878873       0.01211265
  |   Hirshfeld dipole moment :      0.07424660
  |   Hirshfeld second moments:      0.02518109       0.01426725       0.00219721
  |                                  0.01426725       0.04523621       0.01192094
  |                                  0.00219721       0.01192094       0.05556759
  ----------------------------------------------------------------------
  | Atom     8: O
  |   Hirshfeld charge        :     -0.20995059
  |   Free atom volume        :     23.95238533
  |   Hirshfeld volume        :     22.56262898
  |   Hirshfeld dipole vector :      0.03108693      -0.00307401      -0.01500822
  |   Hirshfeld dipole moment :      0.03465679
  |   Hirshfeld second moments:     -0.01398765       0.00285797       0.03773845
  |                                  0.00285797       0.05238571       0.00671723
  |                                  0.03773845       0.00671723       0.05879030
  ----------------------------------------------------------------------
  | Atom     9: H
  |   Hirshfeld charge        :      0.10069425
  |   Free atom volume        :     10.44207651
  |   Hirshfeld volume        :     11.21770817
  |   Hirshfeld dipole vector :      0.01670140       0.03166781       0.03656987
  |   Hirshfeld dipole moment :      0.05117755
  |   Hirshfeld second moments:     -0.01192426      -0.01497754       0.01530117
  |                                 -0.01497754       0.01672385       0.00521338
  |                                  0.01530117       0.00521338       0.05250711
  ----------------------------------------------------------------------
  | Atom    10: H
  |   Hirshfeld charge        :      0.10665490
  |   Free atom volume        :     10.44207651
  |   Hirshfeld volume        :     11.85611032
  |   Hirshfeld dipole vector :     -0.01402803      -0.00121756      -0.06054232
  |   Hirshfeld dipole moment :      0.06215819
  |   Hirshfeld second moments:      0.00024933       0.00290246       0.01865310
  |                                  0.00290246       0.03434023       0.00640384
  |                                  0.01865310       0.00640384       0.01544839
  ----------------------------------------------------------------------
  | Atom    11: O
  |   Hirshfeld charge        :     -0.33394390
  |   Free atom volume        :     23.95238533
  |   Hirshfeld volume        :     24.04989739
  |   Hirshfeld dipole vector :      0.01254234       0.02179988       0.07821395
  |   Hirshfeld dipole moment :      0.08215819
  |   Hirshfeld second moments:      0.01347961       0.06503760      -0.01626960
  |                                  0.06503760      -0.05425191      -0.00398958
  |                                 -0.01626960      -0.00398958      -0.04706297
  ----------------------------------------------------------------------
  | Atom    12: H
  |   Hirshfeld charge        :      0.11864381
  |   Free atom volume        :     10.44207651
  |   Hirshfeld volume        :      9.27386162
  |   Hirshfeld dipole vector :      0.08795977       0.06103637       0.03563132
  |   Hirshfeld dipole moment :      0.11283595
  |   Hirshfeld second moments:      0.07463680       0.02109509      -0.01377014
  |                                  0.02109509       0.04540126      -0.00896965
  |                                 -0.01377014      -0.00896965       0.05959505
  ----------------------------------------------------------------------
  | Atom    13: H
  |   Hirshfeld charge        :      0.09473939
  |   Free atom volume        :     10.44207651
  |   Hirshfeld volume        :      9.55600607
  |   Hirshfeld dipole vector :     -0.05559227      -0.02411490       0.06551862
  |   Hirshfeld dipole moment :      0.08924527
  |   Hirshfeld second moments:      0.05866768       0.02545699       0.01321959
  |                                  0.02545699       0.04167928       0.00381378
  |                                  0.01321959       0.00381378       0.04002204
  ----------------------------------------------------------------------
  | Atom    14: O
  |   Hirshfeld charge        :     -0.32128760
  |   Free atom volume        :     23.95238533
  |   Hirshfeld volume        :     23.68608793
  |   Hirshfeld dipole vector :     -0.00216393       0.06698997      -0.00629350
  |   Hirshfeld dipole moment :      0.06731974
  |   Hirshfeld second moments:     -0.03568856      -0.02392640      -0.06615046
  |                                 -0.02392640      -0.02849415       0.00660167
  |                                 -0.06615046       0.00660167      -0.00473065
  ----------------------------------------------------------------------
  | Atom    15: H
  |   Hirshfeld charge        :      0.11618387
  |   Free atom volume        :     10.44207651
  |   Hirshfeld volume        :      8.52363098
  |   Hirshfeld dipole vector :     -0.05804278       0.08078018       0.06084774
  |   Hirshfeld dipole moment :      0.11660553
  |   Hirshfeld second moments:      0.06817337      -0.00289835      -0.02457638
  |                                 -0.00289835       0.06815405      -0.00354738
  |                                 -0.02457638      -0.00354738       0.08041676
  ----------------------------------------------------------------------
  | Atom    16: H
  |   Hirshfeld charge        :      0.09540234
  |   Free atom volume        :     10.44207651
  |   Hirshfeld volume        :      9.71981580
  |   Hirshfeld dipole vector :      0.03660902       0.03935216      -0.05408890
  |   Hirshfeld dipole moment :      0.07625235
  |   Hirshfeld second moments:      0.03270702      -0.01981832      -0.00952487
  |                                 -0.01981832       0.05735035       0.01720105
  |                                 -0.00952487       0.01720105       0.03835480
  ----------------------------------------------------------------------


------------------------------------------------------------------------------
  Final output of selected total energy values:

  The following output summarizes some interesting total energy values
  at the end of a run (AFTER all relaxation, molecular dynamics, etc.).

  | Total energy of the DFT / Hartree-Fock s.c.f. calculation      :         -10429.355605095 eV
  | Final zero-broadening corrected energy (caution - metals only) :         -10429.358426043 eV
  | For reference only, the value of 1 Hartree used in FHI-aims is :             27.211384500 eV

  Before relying on these values, please be sure to understand exactly which
  total energy value is referred to by a given number. Different objects may
  all carry the same name 'total energy'. Definitions:

  Total energy of the DFT / Hartree-Fock s.c.f. calculation:
  | Note that this energy does not include ANY quantities calculated after the
  | s.c.f. cycle, in particular not ANY RPA, MP2, etc. many-body perturbation terms.

  Final zero-broadening corrected energy:
  | For metallic systems only, a broadening of the occupation numbers at the Fermi
  | level can be extrapolated back to zero broadening by an electron-gas inspired
  | formula. For all systems that are not real metals, this value can be
  | meaningless and should be avoided.

------------------------------------------------------------------------------

------------------------------------------------------------
          Leaving FHI-aims.
          Date     :  20150727, Time     :  120847.203

          Computational steps:
          | Number of self-consistency cycles          :           17

          Detailed time accounting                     :  max(cpu_time)    wall_clock(cpu1)
          | Total time                                 :       42.420 s          42.417 s
          | Preparation time                           :        0.173 s           0.493 s
          | Grid partitioning                          :        0.157 s           0.157 s
          | Preloading free-atom quantities on grid    :        0.014 s           0.014 s
          | Free-atom superposition energy             :        0.074 s           0.073 s
          | Total time for integrations                :       18.390 s          18.391 s
          | Total time for solution of K.-S. equations :        1.183 s           1.183 s
          | Total time for density & force components  :       14.055 s          14.054 s
          | Total time for mixing                      :        0.238 s           0.238 s
          | Total time for Hartree multipole update    :        0.085 s           0.085 s
          | Total time for Hartree multipole sum       :        7.404 s           7.404 s
          | Total time for total energy evaluation     :        0.005 s           0.006 s
          | Total time for scaled ZORA corrections     :        0.000 s           0.000 s
          | Total time for TS (2009) vdW correction    :        0.058 s           0.058 s

          Have a nice day.
------------------------------------------------------------
