  MPI-parallelism will be employed.
------------------------------------------------------------
          Invoking FHI-aims ...
          Version 081213
          Compiled on 2013/08/29 at 17:41:06 on host generoso.

          When using FHI-aims, please cite the following reference:

          Volker Blum, Ralf Gehrke, Felix Hanke, Paula Havu,
          Ville Havu, Xinguo Ren, Karsten Reuter, and Matthias Scheffler,
          'Ab Initio Molecular Simulations with Numeric Atom-Centered Orbitals: FHI-aims',
          Computer Physics Communications 180, 2175-2196 (2009)

          For any questions about FHI-aims, please visit the aimsclub website
          with its forums and wiki. Contributions to both the forums and the
          wiki are warmly encouraged - they are for you, and everyone is welcome there.

------------------------------------------------------------

  Date     :  20150727, Time     :  120414.035
  Time zero on CPU 1             :   0.449920000000000E-01  s.
  Internal wall clock time zero  :           207230654.035  s.

  Using        8 parallel tasks.
  Task        0 on host gen59 reporting.
  Task        1 on host gen59 reporting.
  Task        2 on host gen59 reporting.
  Task        3 on host gen59 reporting.
  Task        4 on host gen59 reporting.
  Task        5 on host gen59 reporting.
  Task        6 on host gen59 reporting.
  Task        7 on host gen59 reporting.

  Performing system and environment tests:
  | Environment variable OMP_NUM_THREADS correctly set to 1.
  | Checking for scalapack...
  | No scalapack compiled in.

  Obtaining array dimensions for all initial allocations:
  
  -----------------------------------------------------------------------
  Parsing control.in (first pass over file, find array dimensions only).
  The contents of control.in will be repeated verbatim below
  unless switched off by setting 'verbatim_writeout .false.' .
  in the first line of control.in .
  -----------------------------------------------------------------------
  
  #########################################################################################
  #
  #  Volker Blum, FHI 2008 : Test run input file control.in
  #
  #########################################################################################
  #
  #  Physical model
  #
    xc                 rpbe
    spin               none
    relativistic       atomic_zora scalar
    charge             0.
   vdw_correction_hirshfeld
  #
  #  SCF convergence
  #
    occupation_type    gaussian 0.01
    mixer              pulay
      n_max_pulay        10
      charge_mix_param   0.1
    sc_accuracy_rho    5E-5
    sc_accuracy_eev    5E-3
    sc_accuracy_etot   5E-6
    sc_iter_limit      3000
  #
  #  Eigenvalue solver
  #
    KS_method          lapack
      empty_states       8
      basis_threshold    0.e-5
  #
  #  Efficiency
  #
  #   all previous settings are now default, except stratmann still
  #   undecided. Continue to handle stratmann with care, if at all.
  #
  #  partition_type stratmann
    partition_type rho_r2
  #  hartree_partition_type stratmann
  #
  #  Oprions for large clusters (100's of atoms: memory saving / better scaling)
  #
  # for periodic systems:
  #
    density_update_method orbital
    packed_matrix_format none
  #  k_grid 6 6 6
  #  output k_eigenvalue 1
  #  distributed_spline_storage .true.
  #
  #  Relaxation
  #
  #  relax_geometry   bfgs 5.e-3
    sc_accuracy_forces 5.E-4
    final_forces_cleaned .true.
  #
  #  Output options
  #
  #  output mulliken
    output Hirshfeld
  #  output dipole
  
  #harmonic_length_scale 0.001
  
  ################################################################################
  #
  #  FHI-aims code project
  #  VB, Fritz-Haber Institut, 2007
  #
  #  Suggested "safe" defaults for H atom (to be pasted into control.in file)
  #  Basis constructed for a non-relativistic H2 molecule using the
  #  PW-LDA functional.
  #
  ################################################################################
    species        H
  #     global species definitions
      nucleus             1
      cut_pot             4.0  2.0  1.0
      cut_free_atom       finite 8.0
      logarithmic         0.00010000 100.00  1.0123
      basis_dep_cutoff    1d-4  # 1d-4 is safe default - please check 5d-4 if you wish!
      radial_base         24 7.0
      radial_multiplier   2
      angular_grids       specified
        division   0.2783  110
        division   0.3822  194
        division   0.5626  302
  #      division   0.5922  434
  #      division   0.6227  590
  #      division   0.7206  770
        outer_grid  302
      l_hartree           4
  ################################################################################
  #
  #  Definition of "minimal" basis
  #
  ################################################################################
  #     valence basis states
      valence      1  s   1.
  #     ion occupancy
      ion_occ      1  s   0.5
  ################################################################################
  #
  #  Suggested additional basis functions. For production calculations,
  #  uncomment them one after another (the most important basis functions are
  #  listed first).
  #
  ################################################################################
  #  "First tier" - improvements: -1014.90 meV to -62.69 meV
       hydro 2 s 2.1
       hydro 2 p 3.5
  #  "Second tier" - improvements: -12.89 meV to -1.83 meV
       hydro 1 s 0.85
       hydro 2 p 3.7
       hydro 2 s 1.2
       hydro 3 d 7
  #  "Third tier" - improvements: -0.25 meV to -0.12 meV
  #     hydro 4 f 11.2
  #     hydro 3 p 4.8
  #     hydro 4 d 9
  #     hydro 3 s 3.2
  
  ################################################################################
  #
  #  FHI-aims code project
  #  VB, Fritz-Haber Institut, 2007
  #
  #  Suggested "safe" defaults for O atom (to be pasted into control.in file)
  #  All values have been tested for a non-relativistic, non-spinpolarized O2
  #  molecule using the PW-LDA functional. Validity for PBE is expected.
  #
  #  Constructed for dimers: 1.0 A, 1.208 A, 1.5 A, 2.0 A, 3.0 A
  #
  ################################################################################
    species        O
  #     global species definitions
      nucleus             8
      mass                15.9994
      l_hartree           4
      cut_pot             4.0  2.0  1.0
      cut_free_atom       finite 8.0
      basis_dep_cutoff    1d-4  # 1d-4 is safe default - please check 5d-4 if you wish!
      logarithmic         0.00010000 100.00  1.0123
      radial_base         36 7.0
      radial_multiplier   2
       angular_grids specified
        division   0.4087  110
        division   0.5181  194
        division   0.6184  302
  #      division   0.7315  434
  #      division   0.7934  590
  #      division   0.9656  770
  #      division   1.4041  974
  #      outer_grid 974
        outer_grid 302
  ################################################################################
  #
  #  Definition of "minimal" basis
  #
  ################################################################################
  #     valence basis states
      valence      2  s   2.
      valence      2  p   4.
  #     ion occupancy
      ion_occ      2  s   1.
      ion_occ      2  p   3.
  ################################################################################
  #
  #  Suggested additional basis functions. For production calculations,
  #  uncomment them one after another (the most important basis functions are
  #  listed first).
  #
  ################################################################################
  #  "First tier" - improvements: -699.05 meV to -159.38 meV
       hydro 2 p 1.8
       hydro 3 d 7.6
       hydro 3 s 6.4
  #  "Second tier" - improvements: -49.91 meV to -5.39 meV
       hydro 4 f 11.6
       hydro 3 p 6.2
       hydro 3 d 5.6
       hydro 5 g 17.6
       hydro 1 s 0.75
  #  "Third tier" - improvements: -2.83 meV to -0.50 meV
  #     ionic 2 p auto
  #     hydro 4 f 10.8
  #     hydro 4 d 4.7
  #     hydro 2 s 6.8
  #  "Fourth tier" - improvements: -0.40 meV to -0.12 meV
  #     hydro 3 p 5
  #     hydro 3 s 3.3
  #     hydro 5 g 15.6
  #     hydro 4 f 17.6
  #     hydro 4 d 14
  # Further basis functions - -0.08 meV and below
  #     hydro 3 s 2.1
  #     hydro 4 d 11.6
  #     hydro 3 p 16
  #     hydro 2 s 17.2
  
  
  -----------------------------------------------------------------------
  Completed first pass over input file control.in .
  -----------------------------------------------------------------------
  
  
  -----------------------------------------------------------------------
  Parsing geometry.in (first pass over file, find array dimensions only).
  The contents of geometry.in will be repeated verbatim below
  unless switched off by setting 'verbatim_writeout .false.' .
  in the first line of geometry.in .
  -----------------------------------------------------------------------
  
  atom      -4.053030000      0.065001000     -1.525160000  O
  atom      -4.566710000      0.974813000     -1.912820000  H
  atom      -3.067820000      0.330172000     -1.477310000  H
  atom      -4.370360000     -0.049164000     -0.572274000  H
  atom      -4.581760000     -0.256435000      0.939478000  O
  atom      -4.349860000      0.471090000      1.504340000  H
  atom      -5.393870000     -0.726611000      1.228070000  H
  atom      -5.293160000      2.192130000     -2.328800000  O
  atom      -4.829300000      2.988660000     -1.973850000  H
  atom      -5.428570000      2.328640000     -3.235170000  H
  atom      -3.818880000      2.024990000      2.187990000  O
  atom      -3.690880000      1.961360000      3.202150000  H
  atom      -4.546490000      2.751300000      2.045370000  H
  atom      -4.066610000      4.258280000     -0.900064000  O
  atom      -3.224110000      3.876870000     -0.569443000  H
  atom      -3.737450000      5.116530000     -1.322720000  H
  
  -----------------------------------------------------------------------
  Completed first pass over input file geometry.in .
  -----------------------------------------------------------------------
  
 
  Basic array size parameters: 
  | Number of species                 :        2
  | Number of atoms                   :       16
  | Max. basis fn. angular momentum   :        4
  | Max. atomic/ionic basis occupied n:        2
  | Max. number of basis fn. types    :        2
  | Max. radial fns per species/type  :        8
  | Max. logarithmic grid size        :     1301
  | Max. radial integration grid size :       73
  | Max. angular integration grid size:      302
  | Max. angular grid division number :        8
  | Radial grid for Hartree potential :     1301
  | Number of spin channels           :        1

------------------------------------------------------------
          Reading file control.in.
------------------------------------------------------------
  XC: Using RPBE gradient-corrected functionals.
  Spin treatment: No spin polarisation.
  Scalar relativistic treatment of kinetic energy: on-site free-atom approximation to ZORA.
  Charge =   0.000000E+00: Neutral system requested explicitly.
  Using non-empirical van der Waals correction (Hirshfeld partitioning):
  Occupation type: Gaussian broadening, width =   0.100000E-01 eV.
  Using pulay charge density mixing.
  Pulay mixing - number of memorized iterations:   10
  Charge density mixing - mixing parameter:     0.1000
  Convergence accuracy of self-consistent charge density: 0.5000E-04
  Convergence accuracy of sum of eigenvalues: 0.5000E-02
  Convergence accuracy of total energy: 0.5000E-05
  Maximum number of s.-c. iterations  :  3000
  Kohn-Sham eigenvalues and eigenfunctions calculated by lapack diagonalisation (D&C).
  Number of empty states per atom:        8
  Threshold for basis singularities: 0.0000E+00
  Partition function in integrals calculations: rho / r^2
 Using packed matrix format           0
  Convergence accuracy of forces: 0.5000E-03
  Cleaning forces before final output.
  Hirshfeld charge analysis will be performed.
 
  Reading configuration options for species H                   .
  | Found nuclear charge :   1.0000
  | Found cutoff potl. onset [A], width [A], scale factor :    4.00000    2.00000    1.00000
  | Found cutoff specification for free atom: Cutoff potential begins at    8.00000 A.
  | Found logarithmic grid data [bohr] : 0.1000E-03 0.1000E+03 0.1012E+01
  | Threshold for basis-dependent cutoff potential is   0.100000E-03
  | Found data for basic radial integration grid :    24 points, outermost radius =    7.000 A
  | Found multiplier for basic radial grid :   2
  | Found angular grid specification: user-specified.
  | Specified grid contains     4 separate shells.
  | Check grid settings after all constraints further below.
  | Found l_max for Hartree potential  :   4
  | Found free-atom valence shell :  1 s   1.000
  | No ionic wave fns used. Skipping ion_occ.
  | Found hydrogenic basis function :  2 s   2.100
  | Found hydrogenic basis function :  2 p   3.500
  | Found hydrogenic basis function :  1 s   0.850
  | Found hydrogenic basis function :  2 p   3.700
  | Found hydrogenic basis function :  2 s   1.200
  | Found hydrogenic basis function :  3 d   7.000
  Species H                   : Missing cutoff potential type.
  Defaulting to exp(1/x)/(1-x)^2 type cutoff potential.
  Species H : On-site basis accuracy parameter (for Gram-Schmidt orthonormalisation) not specified.
  Using default value basis_acc =  0.1000000E-03.
  Species H                   : Using default innermost maximum threshold i_radial=  2 for radial functions.
  Species H                   : Basic radial grid will be enhanced according to radial_multiplier =   2, to contain    49 grid points.
 
  Reading configuration options for species O                   .
  | Found nuclear charge :   8.0000
  | Found atomic mass :    15.9994000000000      amu
  | Found l_max for Hartree potential  :   4
  | Found cutoff potl. onset [A], width [A], scale factor :    4.00000    2.00000    1.00000
  | Found cutoff specification for free atom: Cutoff potential begins at    8.00000 A.
  | Threshold for basis-dependent cutoff potential is   0.100000E-03
  | Found logarithmic grid data [bohr] : 0.1000E-03 0.1000E+03 0.1012E+01
  | Found data for basic radial integration grid :    36 points, outermost radius =    7.000 A
  | Found multiplier for basic radial grid :   2
  | Found angular grid specification: user-specified.
  | Specified grid contains     4 separate shells.
  | Check grid settings after all constraints further below.
  | Found free-atom valence shell :  2 s   2.000
  | Found free-atom valence shell :  2 p   4.000
  | No ionic wave fns used. Skipping ion_occ.
  | No ionic wave fns used. Skipping ion_occ.
  | Found hydrogenic basis function :  2 p   1.800
  | Found hydrogenic basis function :  3 d   7.600
  | Found hydrogenic basis function :  3 s   6.400
  | Found hydrogenic basis function :  4 f  11.600
  | Found hydrogenic basis function :  3 p   6.200
  | Found hydrogenic basis function :  3 d   5.600
  | Found hydrogenic basis function :  5 g  17.600
  | Found hydrogenic basis function :  1 s   0.750
  Species O                   : Missing cutoff potential type.
  Defaulting to exp(1/x)/(1-x)^2 type cutoff potential.
  Species O : On-site basis accuracy parameter (for Gram-Schmidt orthonormalisation) not specified.
  Using default value basis_acc =  0.1000000E-03.
  Species O                   : Using default innermost maximum threshold i_radial=  2 for radial functions.
  Species O                   : Basic radial grid will be enhanced according to radial_multiplier =   2, to contain    73 grid points.
 
  Finished reading input file 'control.in'. Consistency checks are next.
 
  Target number of points in a grid batch is not set. Defaulting to  100
  Method for grid partitioning is not set. Defaulting to parallel hash+maxmin partitioning.
  Batch size limit is not set. Defaulting to    200
  By default, will store active basis functions for each batch.
  If in need of memory, prune_basis_once .false. can be used to disable this option.
  communication_type for Hartree potential was not specified.
  Defaulting to calc_hartree .
  Pulay mixer: Number of initial linear mixing iterations not set.
  Defaulting to    0 iterations.
  Work space size for distributed Hartree potential not set.
  Defaulting to   0.200000E+03 MB.
  Algorithm-dependent basis array size parameters:
  | n_max_pulay                         :       10
  Geometry relaxation not requested: no relaxation will be performed.
  Handling of forces: Unphysical translation and rotation will be removed from forces.
  No accuracy limit for integral partition fn. given. Defaulting to 0.1000E-14.
  No threshold value for u(r) in integrations given. Defaulting to 0.1000E-05.
  No accuracy for occupation numbers given. Defaulting to 0.1000E-07.
  No threshold value for occupation numbers given. Defaulting to 0.0000E+00.
  No accuracy for fermi level given. Defaulting to 0.1000E-19.
  Maximum # of iterations to find E_F not set. Defaulting to  200.
  Will not use alltoall communication since running on < 1024 CPUs.
  Partitioning for Hartree potential was not defined. Using partition_type for integrals.
  | Reporting present value of keyword multip_moments_threshold  :       0.10000000E-09
  | This value may affect high angular momentum components of the Hartree potential in periodic systems.
  No q(lm)/r^(l+1) cutoff set for long-range Hartree potential.
  | Using default value of  0.100000E-09 .
  | Verify using the multipole_threshold keyword.
  Defaulting to new monopole extrapolation.
  Density update method: Loop over occupied states selected for charge density update.
------------------------------------------------------------


------------------------------------------------------------
          Reading geometry description geometry.in.
------------------------------------------------------------
  Input structure read successfully.
  The structure contains       16 atoms,  and a total of         51.000 electrons.

  Input geometry:
  | No unit cell requested.
  | Atomic structure:
  |       Atom                x [A]            y [A]            z [A]
  |    1: Species O             -4.053030         0.065001        -1.525160
  |    2: Species H             -4.566710         0.974813        -1.912820
  |    3: Species H             -3.067820         0.330172        -1.477310
  |    4: Species H             -4.370360        -0.049164        -0.572274
  |    5: Species O             -4.581760        -0.256435         0.939478
  |    6: Species H             -4.349860         0.471090         1.504340
  |    7: Species H             -5.393870        -0.726611         1.228070
  |    8: Species O             -5.293160         2.192130        -2.328800
  |    9: Species H             -4.829300         2.988660        -1.973850
  |   10: Species H             -5.428570         2.328640        -3.235170
  |   11: Species O             -3.818880         2.024990         2.187990
  |   12: Species H             -3.690880         1.961360         3.202150
  |   13: Species H             -4.546490         2.751300         2.045370
  |   14: Species O             -4.066610         4.258280        -0.900064
  |   15: Species H             -3.224110         3.876870        -0.569443
  |   16: Species H             -3.737450         5.116530        -1.322720
  |

  | The smallest distance between any two atoms is         0.92654057 AA.
  |
  | The first atom of this pair is atom number                      8 .
  | The second atom of this pair is atom number                    10 .

  Structure-dependent array size parameters: 
  | Maximum number of distinct radial functions  :       18
  | Maximum number of basis functions            :      360
  | Number of Kohn-Sham states (occupied + empty):       90
------------------------------------------------------------

------------------------------------------------------------
          Preparing all fixed parts of the calculation.
------------------------------------------------------------
  Determining machine precision:
    2.225073858507201E-308
  Setting up grids for atomic and cluster calculations.

  Creating wave function, potential, and density for free atoms.

  Species: H

  List of occupied orbitals and eigenvalues:
    n    l              occ      energy [Ha]    energy [eV]
    1    0           1.0000        -0.241408        -6.5691


  Species: O

  List of occupied orbitals and eigenvalues:
    n    l              occ      energy [Ha]    energy [eV]
    1    0           2.0000       -18.944147      -515.4965
    2    0           2.0000        -0.883529       -24.0421
    2    1           4.0000        -0.330176        -8.9845

  Creating fixed part of basis set: Ionic, confined, hydrogenic.
 
  H                    hydrogenic:
 
  List of hydrogenic basis orbitals: 
    n    l      effective z      eigenvalue [eV]  inner max. [A]     outer max. [A]     outer radius [A]   
    2    0         2.100000       -14.9965           0.193241           1.317192           5.372934
    2    1         3.500000       -41.6672           0.602363           0.602363           4.056010
    1    0         0.850000        -9.8292           0.624864           0.624864           5.372934
    2    1         3.700000       -46.5653           0.573616           0.573616           3.909951
    2    0         1.200000        -4.5995           0.334977           2.228160           5.505921
    3    2         7.000000       -74.0753           0.680692           0.680692           3.769152
 
 
  O                    hydrogenic:
 
  List of hydrogenic basis orbitals: 
    n    l      effective z      eigenvalue [eV]  inner max. [A]     outer max. [A]     outer radius [A]   
    2    1         1.800000       -11.0118           1.178546           1.178546           5.432516
    3    2         7.600000       -87.3182           0.624117           0.624117           3.541422
    3    0         6.400000       -61.9209           0.061166           1.081887           4.306510
    4    3        11.600000      -114.4238           0.731621           0.731621           3.584982
    3    1         6.200000       -58.1113           0.255677           1.030255           4.306510
    3    2         5.600000       -47.4081           0.847222           0.847222           4.413102
    5    4        17.600000      -168.5799           0.749730           0.749730           3.372413
    1    0         0.750000        -7.6499           0.705275           0.705275           5.366508
 

  Adding cutoff potential to free-atom effective potential.
  Creating atomic-like basis functions for current effective potential.

  Species H                   :

  List of atomic basis orbitals and eigenvalues:
    n    l      energy [Ha]    energy [eV]    outer radius [A]
    1    0        -0.241374        -6.5681       5.372934


  Species O                   :

  List of atomic basis orbitals and eigenvalues:
    n    l      energy [Ha]    energy [eV]    outer radius [A]
    1    0       -18.944147      -515.4965       1.415745
    2    0        -0.883529       -24.0421       5.048305
    2    1        -0.330173        -8.9845       5.301302

  Assembling full basis from fixed parts.
  | Species H :   atomic orbital   1 s accepted.
  | Species H :    hydro orbital   2 s accepted.
  | Species H :    hydro orbital   1 s accepted.
  | Species H :    hydro orbital   2 s accepted.
  | Species H :    hydro orbital   2 p accepted.
  | Species H :    hydro orbital   2 p accepted.
  | Species H :    hydro orbital   3 d accepted.
  | Species O :   atomic orbital   1 s accepted.
  | Species O :    hydro orbital   3 s accepted.
  | Species O :   atomic orbital   2 s accepted.
  | Species O :    hydro orbital   1 s accepted.
  | Species O :    hydro orbital   3 p accepted.
  | Species O :   atomic orbital   2 p accepted.
  | Species O :    hydro orbital   2 p accepted.
  | Species O :    hydro orbital   3 d accepted.
  | Species O :    hydro orbital   3 d accepted.
  | Species O :    hydro orbital   4 f accepted.
  | Species O :    hydro orbital   5 g accepted.
 
  Basis size parameters after reduction:
  | Total number of radial functions:       18
  | Total number of basis functions :      360
 
  Testing on-site integration grid accuracy.
  |  Species  Function  <phi|h_atom|phi> (log., in eV)  <phi|h_atom|phi> (rad., in eV)
           1        1                 -6.5683835025                 -6.5684759159
           1        2                 13.3711789951                 13.3708738703
           1        3                 23.6590910787                 23.6532055418
           1        4                 16.2963827186                 16.1870710655 ***
           1        5                 28.7627214838                 28.7627215090
           1        6                 59.5965249172                 59.5965950857
           1        7                 60.2220506392                 60.2220503827
           2        8               -515.4964576505               -515.4964530710
           2        9                 15.3030791347                 15.3030722972
           2       10                -21.7296094581                -21.7296135470
           2       11                 14.2969371730                 14.2969701621
           2       12                 21.0679693190                 21.0679697493
           2       13                 -2.3833606469                 -2.3833613176
           2       14                 13.7067136422                 13.7066766629
           2       15                 45.8013116808                 45.8013116965
           2       16                 52.2309815402                 52.2309831494
           2       17                 85.4120732416                 85.4120732763
           2       18                142.1019167745                142.1019167817
 * Note: Onsite integrals marked "***" above are less accurate than
 * onsite_accuracy_threshold =    0.03000 eV. Usually, this is harmless.
 * When in doubt, tighten the "radial" and/or "radial_multiplier" flags to check.

  Preparing densities etc. for the partition functions (integrals / Hartree potential).

  Preparations completed.
  max(cpu_time)          :      0.171 s.
  Wall clock time (cpu1) :      0.592 s.
------------------------------------------------------------

------------------------------------------------------------
          Begin self-consistency loop: Initialization.

          Date     :  20150727, Time     :  120414.659
------------------------------------------------------------

  Initializing index lists of integration centers etc. from given atomic structure:
  | Number of centers in hartree potential         :        16
  | Number of centers in hartree multipole         :        16
  | Number of centers in electron density summation:        16
  | Number of centers in basis integrals           :        16
  | Number of centers in integrals                 :        16
  Partitioning the integration grid into batches with parallel hashing+maxmin method.
  | Number of batches:     2130
  | Maximal batch size:     135
  | Minimal batch size:      49
  | Average batch size:      97.795
  | Standard deviation of batch sizes:      25.842

  Integration load balanced across     8 MPI tasks.
  Work distribution over tasks is as follows:
  Task     0 has      25987 integration points.
  Task     1 has      26000 integration points.
  Task     2 has      26098 integration points.
  Task     3 has      26037 integration points.
  Task     4 has      26005 integration points.
  Task     5 has      26037 integration points.
  Task     6 has      26054 integration points.
  Task     7 has      26086 integration points.
  Initializing partition tables, free-atom densities, potentials, etc. across the integration grid (initialize_grid_storage).
  | Net number of integration points:   208304
  | of which are non-zero points    :   207756
  Obtaining max. number of non-zero basis functions in each batch (get_n_compute_maxes).
  | Maximal number of non-zero basis functions:      357 in task     0
  | Maximal number of non-zero basis functions:      356 in task     1
  | Maximal number of non-zero basis functions:      356 in task     2
  | Maximal number of non-zero basis functions:      356 in task     3
  | Maximal number of non-zero basis functions:      357 in task     4
  | Maximal number of non-zero basis functions:      356 in task     5
  | Maximal number of non-zero basis functions:      357 in task     6
  | Maximal number of non-zero basis functions:      356 in task     7
  Integrating Hamiltonian matrix: batch-based integration.
  Time summed over all CPUs for integration: real work        8.165 s, elapsed        8.261 s
  Integrating overlap matrix.
  Time summed over all CPUs for integration: real work        4.367 s, elapsed        4.435 s

  Updating Kohn-Sham eigenvalues, eigenvectors, occupation numbers, and Fermi level.
  Solving generalized eigenproblem
  Updating Kohn-Sham eigenvalues and eigenfunctions.
  Transforming overlap matrix and checking for singularities.
  Overlap matrix is nonsingular:
  | Lowest eigenvalue:  0.189455E-03
  Solving real generalised eigenvalue problem by standard LAPACK (fast)
  Determining occupation numbers for Kohn-Sham eigenstates.
  | Chemical potential (Fermi level) in eV                 : -.27188054E+01
  | Error in electron count due to remaining E_F inaccuracy: 0.79040063E-09
  | Maximum occupation number of highest empty state:  0.00E+00

  Writing Kohn-Sham eigenvalues.

  State    Occupation    Eigenvalue [Ha]    Eigenvalue [eV]
      1       2.00000         -19.065137         -518.78877
      2       2.00000         -19.064962         -518.78400
      3       2.00000         -19.059273         -518.62921
      4       2.00000         -19.042866         -518.18274
      5       2.00000         -19.032057         -517.88862
      6       2.00000          -1.130424          -30.76041
      7       2.00000          -1.117341          -30.40441
      8       2.00000          -1.104020          -30.04192
      9       2.00000          -1.086648          -29.56919
     10       2.00000          -1.064466          -28.96559
     11       2.00000          -0.655000          -17.82347
     12       2.00000          -0.653799          -17.79077
     13       2.00000          -0.641137          -17.44622
     14       2.00000          -0.621128          -16.90176
     15       2.00000          -0.606082          -16.49232
     16       2.00000          -0.593832          -16.15898
     17       2.00000          -0.536690          -14.60408
     18       2.00000          -0.514153          -13.99082
     19       2.00000          -0.505456          -13.75417
     20       2.00000          -0.493907          -13.43990
     21       2.00000          -0.483607          -13.15962
     22       2.00000          -0.452958          -12.32560
     23       2.00000          -0.446519          -12.15040
     24       2.00000          -0.433621          -11.79943
     25       2.00000          -0.425007          -11.56502
     26       1.00000          -0.099914           -2.71881
     27       0.00000          -0.073115           -1.98956
     28       0.00000          -0.064720           -1.76111
     29       0.00000          -0.040172           -1.09313
     30       0.00000          -0.038899           -1.05851
     31       0.00000          -0.014848           -0.40404
     32       0.00000          -0.000763           -0.02076
     33       0.00000           0.030306            0.82468
     34       0.00000           0.036355            0.98927
     35       0.00000           0.046883            1.27576
     36       0.00000           0.060090            1.63514
     37       0.00000           0.068902            1.87492
     38       0.00000           0.081723            2.22379
     39       0.00000           0.088454            2.40695
     40       0.00000           0.093024            2.53132
     41       0.00000           0.098911            2.69150
     42       0.00000           0.105793            2.87878
     43       0.00000           0.109148            2.97007
     44       0.00000           0.114993            3.12911
     45       0.00000           0.122773            3.34083
     46       0.00000           0.132494            3.60535
     47       0.00000           0.141309            3.84520
     48       0.00000           0.145958            3.97171
     49       0.00000           0.152036            4.13711
     50       0.00000           0.163867            4.45905
     51       0.00000           0.183403            4.99065
     52       0.00000           0.190412            5.18137
     53       0.00000           0.209418            5.69856
     54       0.00000           0.222020            6.04147
     55       0.00000           0.231609            6.30240
     56       0.00000           0.251332            6.83910
     57       0.00000           0.258784            7.04187
     58       0.00000           0.267435            7.27729
     59       0.00000           0.275030            7.48396
     60       0.00000           0.282566            7.68903
     61       0.00000           0.302222            8.22389
     62       0.00000           0.327311            8.90659
     63       0.00000           0.341869            9.30273
     64       0.00000           0.358955            9.76765
     65       0.00000           0.365922            9.95724
     66       0.00000           0.379731           10.33301
     67       0.00000           0.382214           10.40057
     68       0.00000           0.395956           10.77450
     69       0.00000           0.420825           11.45122
     70       0.00000           0.425278           11.57239
     71       0.00000           0.431530           11.74253
     72       0.00000           0.438253           11.92547
     73       0.00000           0.445667           12.12721
     74       0.00000           0.451225           12.27846
     75       0.00000           0.470437           12.80125
     76       0.00000           0.488318           13.28782
     77       0.00000           0.526341           14.32248
     78       0.00000           0.528404           14.37861
     79       0.00000           0.557697           15.17570
     80       0.00000           0.563760           15.34068
     81       0.00000           0.566824           15.42405
     82       0.00000           0.586587           15.96185
     83       0.00000           0.631748           17.19075
     84       0.00000           0.653593           17.78517
     85       0.00000           0.683525           18.59966
     86       0.00000           0.697648           18.98396
     87       0.00000           0.745098           20.27514
     88       0.00000           0.752152           20.46709
     89       0.00000           0.759686           20.67210
     90       0.00000           0.772964           21.03342

  Highest occupied state (VBM) at     -2.71880537 eV
  | Occupation number:      1.00000000

  Lowest unoccupied state (CBM) at    -1.98955913 eV
  | Occupation number:      0.00000000

  Overall HOMO-LUMO gap:      0.72924623 eV.
  Calculating total energy contributions from superposition of free atom densities.

  Total energy components:
  | Sum of eigenvalues            :        -217.76009429 Ha       -5925.55365441 eV
  | XC energy correction          :         -45.95730075 Ha       -1250.56178141 eV
  | XC potential correction       :          58.73919281 Ha        1598.37476089 eV
  | Free-atom electrostatic energy:        -178.55695266 Ha       -4858.78189394 eV
  | Hartree energy correction     :           0.00000000 Ha           0.00000000 eV
  | van der Waals energy corr.    :           0.00000000 Ha           0.00000000 eV
  | Entropy correction            :          -0.00010367 Ha          -0.00282095 eV
  | ---------------------------
  | Total energy                  :        -383.53515489 Ha      -10436.52256888 eV
  | Total energy, T -> 0          :        -383.53525855 Ha      -10436.52538983 eV  <-- do not rely on this value for anything but (periodic) metals
  | Electronic free energy        :        -383.53536222 Ha      -10436.52821078 eV

  Derived energy quantities:
  | Kinetic energy                :         379.90008197 Ha       10337.60720210 eV
  | Electrostatic energy          :        -717.47793610 Ha      -19523.56798957 eV
  | Energy correction for multipole
  | error in Hartree potential    :           0.00000000 Ha           0.00000000 eV
  | Sum of eigenvalues per atom                           :        -370.34710340 eV
  | Total energy (T->0) per atom                          :        -652.28283686 eV  <-- do not rely on this value for anything but (periodic) metals
  | Electronic free energy per atom                       :        -652.28301317 eV
  Initialize hartree_potential_storage
  Max. number of atoms included in rho_multipole:           16

  End scf initialization - timings             :  max(cpu_time)    wall_clock(cpu1)
  | Time for scf. initialization               :        2.177 s           2.176 s
  | Boundary condition initialization          :        0.000 s           0.000 s
  | Integration                                :        1.591 s           1.590 s
  | Solution of K.-S. eqns.                    :        0.213 s           0.214 s
  | Grid partitioning                          :        0.135 s           0.135 s
  | Preloading free-atom quantities on grid    :        0.013 s           0.014 s
  | Free-atom superposition energy             :        0.072 s           0.072 s
  | Total energy evaluation                    :        0.001 s           0.000 s
------------------------------------------------------------

------------------------------------------------------------
          Begin self-consistency iteration #    1

  Date     :  20150727, Time     :  120416.835
------------------------------------------------------------
  Evaluating new KS density.
  Integration grid: deviation in total charge (<rho> - N_e) =   7.904077E-10
  Pulay mixing of updated and previous charge densities.

  Evaluating partitioned Hartree potential by multipole expansion.
  | Analytical far-field extrapolation by fixed multipoles:
  | Hartree multipole sum: apparent total charge =  -0.118401E-05
  Summing up the Hartree potential.
  Time summed over all CPUs for potential: real work        2.895 s, elapsed        2.906 s
  | RMS charge density error from multipole expansion :   0.166603E-02

  Integrating Hamiltonian matrix: batch-based integration.
  Time summed over all CPUs for integration: real work        8.129 s, elapsed        8.273 s

  Updating Kohn-Sham eigenvalues, eigenvectors, occupation numbers, and Fermi level.
  Solving generalized eigenproblem
  Updating Kohn-Sham eigenvalues and eigenfunctions.
  Solving real generalised eigenvalue problem by standard LAPACK (fast)
  Determining occupation numbers for Kohn-Sham eigenstates.
  | Chemical potential (Fermi level) in eV                 : -.24849400E+01
  | Error in electron count due to remaining E_F inaccuracy: 0.00000000E+00
  | Maximum occupation number of highest empty state:  0.00E+00

  Writing Kohn-Sham eigenvalues.

  State    Occupation    Eigenvalue [Ha]    Eigenvalue [eV]
      1       2.00000         -19.012139         -517.34662
      2       2.00000         -18.994297         -516.86113
      3       2.00000         -18.983480         -516.56676
      4       2.00000         -18.968148         -516.14956
      5       2.00000         -18.957570         -515.86173
      6       2.00000          -1.102601          -30.00331
      7       2.00000          -1.084092          -29.49966
      8       2.00000          -1.068209          -29.06744
      9       2.00000          -1.049169          -28.54935
     10       2.00000          -1.026038          -27.91993
     11       2.00000          -0.624434          -16.99171
     12       2.00000          -0.622177          -16.93029
     13       2.00000          -0.617570          -16.80495
     14       2.00000          -0.598960          -16.29852
     15       2.00000          -0.573844          -15.61510
     16       2.00000          -0.561314          -15.27412
     17       2.00000          -0.505372          -13.75186
     18       2.00000          -0.479057          -13.03580
     19       2.00000          -0.469404          -12.77313
     20       2.00000          -0.459012          -12.49035
     21       2.00000          -0.451576          -12.28801
     22       2.00000          -0.418498          -11.38791
     23       2.00000          -0.408133          -11.10587
     24       2.00000          -0.394756          -10.74186
     25       2.00000          -0.385099          -10.47907
     26       1.00000          -0.091320           -2.48494
     27       0.00000          -0.064410           -1.75268
     28       0.00000          -0.057113           -1.55411
     29       0.00000          -0.034095           -0.92778
     30       0.00000          -0.031671           -0.86182
     31       0.00000          -0.005063           -0.13777
     32       0.00000           0.007707            0.20972
     33       0.00000           0.037782            1.02810
     34       0.00000           0.043400            1.18097
     35       0.00000           0.055090            1.49907
     36       0.00000           0.064951            1.76740
     37       0.00000           0.077269            2.10259
     38       0.00000           0.089875            2.44561
     39       0.00000           0.096746            2.63259
     40       0.00000           0.102770            2.79652
     41       0.00000           0.106522            2.89861
     42       0.00000           0.113662            3.09291
     43       0.00000           0.120595            3.28155
     44       0.00000           0.124130            3.37775
     45       0.00000           0.131190            3.56986
     46       0.00000           0.140925            3.83477
     47       0.00000           0.149912            4.07932
     48       0.00000           0.154927            4.21578
     49       0.00000           0.167807            4.56627
     50       0.00000           0.174269            4.74211
     51       0.00000           0.192077            5.22668
     52       0.00000           0.198133            5.39149
     53       0.00000           0.216086            5.88000
     54       0.00000           0.231282            6.29351
     55       0.00000           0.239774            6.52459
     56       0.00000           0.259394            7.05847
     57       0.00000           0.266736            7.25825
     58       0.00000           0.274859            7.47930
     59       0.00000           0.282212            7.67937
     60       0.00000           0.289509            7.87793
     61       0.00000           0.307237            8.36033
     62       0.00000           0.335067            9.11764
     63       0.00000           0.349993            9.52378
     64       0.00000           0.366925            9.98453
     65       0.00000           0.374368           10.18707
     66       0.00000           0.388495           10.57150
     67       0.00000           0.391498           10.65321
     68       0.00000           0.403195           10.97150
     69       0.00000           0.427601           11.63562
     70       0.00000           0.433282           11.79020
     71       0.00000           0.440509           11.98686
     72       0.00000           0.445862           12.13251
     73       0.00000           0.453559           12.34198
     74       0.00000           0.458825           12.48527
     75       0.00000           0.479145           13.03819
     76       0.00000           0.497803           13.54591
     77       0.00000           0.535953           14.58402
     78       0.00000           0.538860           14.66311
     79       0.00000           0.568967           15.48238
     80       0.00000           0.573154           15.59630
     81       0.00000           0.578096           15.73079
     82       0.00000           0.596837           16.24076
     83       0.00000           0.642728           17.48953
     84       0.00000           0.663372           18.05127
     85       0.00000           0.694870           18.90838
     86       0.00000           0.710031           19.32094
     87       0.00000           0.755589           20.56062
     88       0.00000           0.763403           20.77325
     89       0.00000           0.770243           20.95939
     90       0.00000           0.781802           21.27392

  Highest occupied state (VBM) at     -2.48494005 eV
  | Occupation number:      1.00000000

  Lowest unoccupied state (CBM) at    -2.48494005 eV
  | Occupation number:      1.00000000

  Overall HOMO-LUMO gap:      0.00000000 eV.

  Total energy components:
  | Sum of eigenvalues            :        -215.72121684 Ha       -5870.07297632 eV
  | XC energy correction          :         -46.17551341 Ha       -1256.49964978 eV
  | XC potential correction       :          59.02407334 Ha        1606.12675451 eV
  | Free-atom electrostatic energy:        -178.55695266 Ha       -4858.78189394 eV
  | Hartree energy correction     :          -1.98871132 Ha         -54.11558832 eV
  | van der Waals energy corr.    :           0.00000000 Ha           0.00000000 eV
  | Entropy correction            :          -0.00010367 Ha          -0.00282095 eV
  | ---------------------------
  | Total energy                  :        -383.41832088 Ha      -10433.34335386 eV
  | Total energy, T -> 0          :        -383.41842455 Ha      -10433.34617480 eV  <-- do not rely on this value for anything but (periodic) metals
  | Electronic free energy        :        -383.41852822 Ha      -10433.34899575 eV

  Derived energy quantities:
  | Kinetic energy                :         381.22886397 Ha       10373.76519996 eV
  | Electrostatic energy          :        -718.47167144 Ha      -19550.60890404 eV
  | Energy correction for multipole
  | error in Hartree potential    :           0.00032458 Ha           0.00883227 eV
  | Sum of eigenvalues per atom                           :        -366.87956102 eV
  | Total energy (T->0) per atom                          :        -652.08413593 eV  <-- do not rely on this value for anything but (periodic) metals
  | Electronic free energy per atom                       :        -652.08431223 eV

  Self-consistency convergence accuracy:
  | Change of charge density      : 0.6301E+00
  | Change of sum of eigenvalues  : 0.5548E+02 eV
  | Change of total energy        : 0.3179E+01 eV

  End self-consistency iteration #     1       :  max(cpu_time)    wall_clock(cpu1)
  | Time for this iteration                    :        2.147 s           2.146 s
  | Charge density update                      :        0.681 s           0.680 s
  | Density mixing                             :        0.003 s           0.003 s
  | Hartree multipole update                   :        0.005 s           0.006 s
  | Hartree multipole summation                :        0.365 s           0.364 s
  | Integration                                :        1.036 s           1.036 s
  | Solution of K.-S. eqns.                    :        0.056 s           0.057 s
  | Total energy evaluation                    :        0.000 s           0.000 s
------------------------------------------------------------

------------------------------------------------------------
          Begin self-consistency iteration #    2

  Date     :  20150727, Time     :  120418.983
------------------------------------------------------------
  Evaluating new KS density.
  Integration grid: deviation in total charge (<rho> - N_e) =  -7.105427E-15
  Pulay mixing of updated and previous charge densities.

  Evaluating partitioned Hartree potential by multipole expansion.
  | Analytical far-field extrapolation by fixed multipoles:
  | Hartree multipole sum: apparent total charge =  -0.388524E-05
  Summing up the Hartree potential.
  Time summed over all CPUs for potential: real work        2.894 s, elapsed        2.906 s
  | RMS charge density error from multipole expansion :   0.676694E-02

  Integrating Hamiltonian matrix: batch-based integration.
  Time summed over all CPUs for integration: real work        8.122 s, elapsed        8.252 s

  Updating Kohn-Sham eigenvalues, eigenvectors, occupation numbers, and Fermi level.
  Solving generalized eigenproblem
  Updating Kohn-Sham eigenvalues and eigenfunctions.
  Solving real generalised eigenvalue problem by standard LAPACK (fast)
  Determining occupation numbers for Kohn-Sham eigenstates.
  | Chemical potential (Fermi level) in eV                 : -.19502486E+01
  | Error in electron count due to remaining E_F inaccuracy: 0.00000000E+00
  | Maximum occupation number of highest empty state:  0.00E+00

  Highest occupied state (VBM) at     -1.95024863 eV
  | Occupation number:      1.00000000

  Lowest unoccupied state (CBM) at    -1.95024863 eV
  | Occupation number:      1.00000000

  Overall HOMO-LUMO gap:      0.00000000 eV.

  Total energy components:
  | Sum of eigenvalues            :        -210.82316860 Ha       -5736.79030241 eV
  | XC energy correction          :         -46.72635249 Ha       -1271.48874401 eV
  | XC potential correction       :          59.74162220 Ha        1625.65225238 eV
  | Free-atom electrostatic energy:        -178.55695266 Ha       -4858.78189394 eV
  | Hartree energy correction     :          -6.92275512 Ha        -188.37775136 eV
  | van der Waals energy corr.    :           0.00000000 Ha           0.00000000 eV
  | Entropy correction            :          -0.00010367 Ha          -0.00282095 eV
  | ---------------------------
  | Total energy                  :        -383.28760668 Ha      -10429.78643933 eV
  | Total energy, T -> 0          :        -383.28771034 Ha      -10429.78926028 eV  <-- do not rely on this value for anything but (periodic) metals
  | Electronic free energy        :        -383.28781401 Ha      -10429.79208123 eV

  Derived energy quantities:
  | Kinetic energy                :         384.00359302 Ha       10449.26941906 eV
  | Electrostatic energy          :        -720.56484720 Ha      -19607.56711439 eV
  | Energy correction for multipole
  | error in Hartree potential    :           0.00034533 Ha           0.00939698 eV
  | Sum of eigenvalues per atom                           :        -358.54939390 eV
  | Total energy (T->0) per atom                          :        -651.86182877 eV  <-- do not rely on this value for anything but (periodic) metals
  | Electronic free energy per atom                       :        -651.86200508 eV

  Self-consistency convergence accuracy:
  | Change of charge density      : 0.4791E+00
  | Change of sum of eigenvalues  : 0.1333E+03 eV
  | Change of total energy        : 0.3557E+01 eV

  End self-consistency iteration #     2       :  max(cpu_time)    wall_clock(cpu1)
  | Time for this iteration                    :        2.145 s           2.145 s
  | Charge density update                      :        0.679 s           0.679 s
  | Density mixing                             :        0.006 s           0.006 s
  | Hartree multipole update                   :        0.005 s           0.005 s
  | Hartree multipole summation                :        0.364 s           0.364 s
  | Integration                                :        1.034 s           1.033 s
  | Solution of K.-S. eqns.                    :        0.056 s           0.057 s
  | Total energy evaluation                    :        0.000 s           0.001 s
------------------------------------------------------------

------------------------------------------------------------
          Begin self-consistency iteration #    3

  Date     :  20150727, Time     :  120421.128
------------------------------------------------------------
  Evaluating new KS density.
  Integration grid: deviation in total charge (<rho> - N_e) =   4.263256E-14
  Pulay mixing of updated and previous charge densities.

  Evaluating partitioned Hartree potential by multipole expansion.
  | Analytical far-field extrapolation by fixed multipoles:
  | Hartree multipole sum: apparent total charge =  -0.403437E-05
  Summing up the Hartree potential.
  Time summed over all CPUs for potential: real work        2.894 s, elapsed        2.906 s
  | RMS charge density error from multipole expansion :   0.139854E-01

  Integrating Hamiltonian matrix: batch-based integration.
  Time summed over all CPUs for integration: real work        8.117 s, elapsed        8.255 s

  Updating Kohn-Sham eigenvalues, eigenvectors, occupation numbers, and Fermi level.
  Solving generalized eigenproblem
  Updating Kohn-Sham eigenvalues and eigenfunctions.
  Solving real generalised eigenvalue problem by standard LAPACK (fast)
  Determining occupation numbers for Kohn-Sham eigenstates.
  | Chemical potential (Fermi level) in eV                 : -.18815388E+01
  | Error in electron count due to remaining E_F inaccuracy: -.14641728E-08
  | Maximum occupation number of highest empty state:  0.00E+00

  Highest occupied state (VBM) at     -8.19976034 eV
  | Occupation number:      2.00000000

  Lowest unoccupied state (CBM) at    -1.88153882 eV
  | Occupation number:      1.00000000

  Overall HOMO-LUMO gap:      6.31822153 eV.

  Total energy components:
  | Sum of eigenvalues            :        -211.06676779 Ha       -5743.41897354 eV
  | XC energy correction          :         -46.72810834 Ha       -1271.53652311 eV
  | XC potential correction       :          59.73521478 Ha        1625.47789749 eV
  | Free-atom electrostatic energy:        -178.55695266 Ha       -4858.78189394 eV
  | Hartree energy correction     :          -6.67090530 Ha        -181.52456912 eV
  | van der Waals energy corr.    :           0.00000000 Ha           0.00000000 eV
  | Entropy correction            :          -0.00010367 Ha          -0.00282095 eV
  | ---------------------------
  | Total energy                  :        -383.28751932 Ha      -10429.78406222 eV
  | Total energy, T -> 0          :        -383.28762299 Ha      -10429.78688317 eV  <-- do not rely on this value for anything but (periodic) metals
  | Electronic free energy        :        -383.28772665 Ha      -10429.78970411 eV

  Derived energy quantities:
  | Kinetic energy                :         382.23909153 Ha       10401.25489045 eV
  | Electrostatic energy          :        -718.79850250 Ha      -19559.50242955 eV
  | Energy correction for multipole
  | error in Hartree potential    :          -0.00445573 Ha          -0.12124659 eV
  | Sum of eigenvalues per atom                           :        -358.96368585 eV
  | Total energy (T->0) per atom                          :        -651.86168020 eV  <-- do not rely on this value for anything but (periodic) metals
  | Electronic free energy per atom                       :        -651.86185651 eV

  Self-consistency convergence accuracy:
  | Change of charge density      : 0.2336E+00
  | Change of sum of eigenvalues  : -.6629E+01 eV
  | Change of total energy        : 0.2377E-02 eV

  End self-consistency iteration #     3       :  max(cpu_time)    wall_clock(cpu1)
  | Time for this iteration                    :        2.142 s           2.142 s
  | Charge density update                      :        0.674 s           0.674 s
  | Density mixing                             :        0.008 s           0.007 s
  | Hartree multipole update                   :        0.005 s           0.005 s
  | Hartree multipole summation                :        0.364 s           0.364 s
  | Integration                                :        1.033 s           1.034 s
  | Solution of K.-S. eqns.                    :        0.057 s           0.057 s
  | Total energy evaluation                    :        0.000 s           0.001 s
------------------------------------------------------------

------------------------------------------------------------
          Begin self-consistency iteration #    4

  Date     :  20150727, Time     :  120423.270
------------------------------------------------------------
  Evaluating new KS density.
  Integration grid: deviation in total charge (<rho> - N_e) =  -1.464166E-09
  Pulay mixing of updated and previous charge densities.

  Evaluating partitioned Hartree potential by multipole expansion.
  | Analytical far-field extrapolation by fixed multipoles:
  | Hartree multipole sum: apparent total charge =  -0.459305E-05
  Summing up the Hartree potential.
  Time summed over all CPUs for potential: real work        2.893 s, elapsed        2.905 s
  | RMS charge density error from multipole expansion :   0.164560E-01

  Integrating Hamiltonian matrix: batch-based integration.
  Time summed over all CPUs for integration: real work        8.107 s, elapsed        8.246 s

  Updating Kohn-Sham eigenvalues, eigenvectors, occupation numbers, and Fermi level.
  Solving generalized eigenproblem
  Updating Kohn-Sham eigenvalues and eigenfunctions.
  Solving real generalised eigenvalue problem by standard LAPACK (fast)
  Determining occupation numbers for Kohn-Sham eigenstates.
  | Chemical potential (Fermi level) in eV                 : -.17853842E+01
  | Error in electron count due to remaining E_F inaccuracy: -.13593038E-08
  | Maximum occupation number of highest empty state:  0.00E+00

  Highest occupied state (VBM) at     -7.71263441 eV
  | Occupation number:      2.00000000

  Lowest unoccupied state (CBM) at    -1.78538418 eV
  | Occupation number:      1.00000000

  Overall HOMO-LUMO gap:      5.92725024 eV.

  Total energy components:
  | Sum of eigenvalues            :        -210.22497937 Ha       -5720.51274502 eV
  | XC energy correction          :         -46.83998974 Ha       -1274.58097080 eV
  | XC potential correction       :          59.87919224 Ha        1629.39572360 eV
  | Free-atom electrostatic energy:        -178.55695266 Ha       -4858.78189394 eV
  | Hartree energy correction     :          -7.54009401 Ha        -205.17639719 eV
  | van der Waals energy corr.    :           0.00000000 Ha           0.00000000 eV
  | Entropy correction            :          -0.00010367 Ha          -0.00282095 eV
  | ---------------------------
  | Total energy                  :        -383.28282353 Ha      -10429.65628334 eV
  | Total energy, T -> 0          :        -383.28292720 Ha      -10429.65910429 eV  <-- do not rely on this value for anything but (periodic) metals
  | Electronic free energy        :        -383.28303087 Ha      -10429.66192524 eV

  Derived energy quantities:
  | Kinetic energy                :         382.36487145 Ha       10404.67753628 eV
  | Electrostatic energy          :        -718.80770524 Ha      -19559.75284882 eV
  | Energy correction for multipole
  | error in Hartree potential    :          -0.00554384 Ha          -0.15085551 eV
  | Sum of eigenvalues per atom                           :        -357.53204656 eV
  | Total energy (T->0) per atom                          :        -651.85369402 eV  <-- do not rely on this value for anything but (periodic) metals
  | Electronic free energy per atom                       :        -651.85387033 eV

  Self-consistency convergence accuracy:
  | Change of charge density      : 0.1074E+00
  | Change of sum of eigenvalues  : 0.2291E+02 eV
  | Change of total energy        : 0.1278E+00 eV

  End self-consistency iteration #     4       :  max(cpu_time)    wall_clock(cpu1)
  | Time for this iteration                    :        2.143 s           2.142 s
  | Charge density update                      :        0.674 s           0.674 s
  | Density mixing                             :        0.009 s           0.008 s
  | Hartree multipole update                   :        0.005 s           0.005 s
  | Hartree multipole summation                :        0.364 s           0.364 s
  | Integration                                :        1.033 s           1.033 s
  | Solution of K.-S. eqns.                    :        0.057 s           0.057 s
  | Total energy evaluation                    :        0.001 s           0.001 s
------------------------------------------------------------

------------------------------------------------------------
          Begin self-consistency iteration #    5

  Date     :  20150727, Time     :  120425.412
------------------------------------------------------------
  Evaluating new KS density.
  Integration grid: deviation in total charge (<rho> - N_e) =  -1.359325E-09
  Pulay mixing of updated and previous charge densities.

  Evaluating partitioned Hartree potential by multipole expansion.
  | Analytical far-field extrapolation by fixed multipoles:
  | Hartree multipole sum: apparent total charge =  -0.479460E-05
  Summing up the Hartree potential.
  Time summed over all CPUs for potential: real work        2.893 s, elapsed        2.905 s
  | RMS charge density error from multipole expansion :   0.176788E-01

  Integrating Hamiltonian matrix: batch-based integration.
  Time summed over all CPUs for integration: real work        8.109 s, elapsed        8.247 s

  Updating Kohn-Sham eigenvalues, eigenvectors, occupation numbers, and Fermi level.
  Solving generalized eigenproblem
  Updating Kohn-Sham eigenvalues and eigenfunctions.
  Solving real generalised eigenvalue problem by standard LAPACK (fast)
  Determining occupation numbers for Kohn-Sham eigenstates.
  | Chemical potential (Fermi level) in eV                 : -.17741484E+01
  | Error in electron count due to remaining E_F inaccuracy: 0.11802115E-10
  | Maximum occupation number of highest empty state:  0.00E+00

  Highest occupied state (VBM) at     -1.77414843 eV
  | Occupation number:      1.00000000

  Lowest unoccupied state (CBM) at    -1.06154345 eV
  | Occupation number:      0.00000000

  Overall HOMO-LUMO gap:      0.71260498 eV.

  Total energy components:
  | Sum of eigenvalues            :        -210.04392023 Ha       -5715.58587515 eV
  | XC energy correction          :         -46.87009268 Ha       -1275.40011334 eV
  | XC potential correction       :          59.91717776 Ha        1630.42936222 eV
  | Free-atom electrostatic energy:        -178.55695266 Ha       -4858.78189394 eV
  | Hartree energy correction     :          -7.72837448 Ha        -210.29976960 eV
  | van der Waals energy corr.    :           0.00000000 Ha           0.00000000 eV
  | Entropy correction            :          -0.00010367 Ha          -0.00282095 eV
  | ---------------------------
  | Total energy                  :        -383.28216228 Ha      -10429.63828981 eV
  | Total energy, T -> 0          :        -383.28226595 Ha      -10429.64111076 eV  <-- do not rely on this value for anything but (periodic) metals
  | Electronic free energy        :        -383.28236962 Ha      -10429.64393171 eV

  Derived energy quantities:
  | Kinetic energy                :         382.31268031 Ha       10403.25734307 eV
  | Electrostatic energy          :        -718.72474991 Ha      -19557.49551954 eV
  | Energy correction for multipole
  | error in Hartree potential    :          -0.00639202 Ha          -0.17393563 eV
  | Sum of eigenvalues per atom                           :        -357.22411720 eV
  | Total energy (T->0) per atom                          :        -651.85256942 eV  <-- do not rely on this value for anything but (periodic) metals
  | Electronic free energy per atom                       :        -651.85274573 eV

  Self-consistency convergence accuracy:
  | Change of charge density      : 0.4652E-01
  | Change of sum of eigenvalues  : 0.4927E+01 eV
  | Change of total energy        : 0.1799E-01 eV

  End self-consistency iteration #     5       :  max(cpu_time)    wall_clock(cpu1)
  | Time for this iteration                    :        2.143 s           2.143 s
  | Charge density update                      :        0.674 s           0.674 s
  | Density mixing                             :        0.010 s           0.010 s
  | Hartree multipole update                   :        0.005 s           0.005 s
  | Hartree multipole summation                :        0.364 s           0.364 s
  | Integration                                :        1.033 s           1.033 s
  | Solution of K.-S. eqns.                    :        0.057 s           0.056 s
  | Total energy evaluation                    :        0.000 s           0.001 s
------------------------------------------------------------

------------------------------------------------------------
          Begin self-consistency iteration #    6

  Date     :  20150727, Time     :  120427.555
------------------------------------------------------------
  Evaluating new KS density.
  Integration grid: deviation in total charge (<rho> - N_e) =   1.180922E-11
  Pulay mixing of updated and previous charge densities.

  Evaluating partitioned Hartree potential by multipole expansion.
  | Analytical far-field extrapolation by fixed multipoles:
  | Hartree multipole sum: apparent total charge =  -0.485858E-05
  Summing up the Hartree potential.
  Time summed over all CPUs for potential: real work        2.893 s, elapsed        2.905 s
  | RMS charge density error from multipole expansion :   0.180234E-01

  Integrating Hamiltonian matrix: batch-based integration.
  Time summed over all CPUs for integration: real work        8.110 s, elapsed        8.267 s

  Updating Kohn-Sham eigenvalues, eigenvectors, occupation numbers, and Fermi level.
  Solving generalized eigenproblem
  Updating Kohn-Sham eigenvalues and eigenfunctions.
  Solving real generalised eigenvalue problem by standard LAPACK (fast)
  Determining occupation numbers for Kohn-Sham eigenstates.
  | Chemical potential (Fermi level) in eV                 : -.17728060E+01
  | Error in electron count due to remaining E_F inaccuracy: 0.00000000E+00
  | Maximum occupation number of highest empty state:  0.00E+00

  Highest occupied state (VBM) at     -1.77280601 eV
  | Occupation number:      1.00000000

  Lowest unoccupied state (CBM) at    -1.77280601 eV
  | Occupation number:      1.00000000

  Overall HOMO-LUMO gap:      0.00000000 eV.

  Total energy components:
  | Sum of eigenvalues            :        -210.00618395 Ha       -5714.55901888 eV
  | XC energy correction          :         -46.87708847 Ha       -1275.59047867 eV
  | XC potential correction       :          59.92593466 Ha        1630.66764947 eV
  | Free-atom electrostatic energy:        -178.55695266 Ha       -4858.78189394 eV
  | Hartree energy correction     :          -7.76790813 Ha        -211.37553501 eV
  | van der Waals energy corr.    :           0.00000000 Ha           0.00000000 eV
  | Entropy correction            :          -0.00010367 Ha          -0.00282095 eV
  | ---------------------------
  | Total energy                  :        -383.28219856 Ha      -10429.63927702 eV
  | Total energy, T -> 0          :        -383.28230223 Ha      -10429.64209797 eV  <-- do not rely on this value for anything but (periodic) metals
  | Electronic free energy        :        -383.28240590 Ha      -10429.64491892 eV

  Derived energy quantities:
  | Kinetic energy                :         382.30483758 Ha       10403.04393153 eV
  | Electrostatic energy          :        -718.70994767 Ha      -19557.09272989 eV
  | Energy correction for multipole
  | error in Hartree potential    :          -0.00667245 Ha          -0.18156671 eV
  | Sum of eigenvalues per atom                           :        -357.15993868 eV
  | Total energy (T->0) per atom                          :        -651.85263112 eV  <-- do not rely on this value for anything but (periodic) metals
  | Electronic free energy per atom                       :        -651.85280743 eV

  Self-consistency convergence accuracy:
  | Change of charge density      : 0.8750E-02
  | Change of sum of eigenvalues  : 0.1027E+01 eV
  | Change of total energy        : -.9872E-03 eV

  End self-consistency iteration #     6       :  max(cpu_time)    wall_clock(cpu1)
  | Time for this iteration                    :        2.151 s           2.150 s
  | Charge density update                      :        0.677 s           0.677 s
  | Density mixing                             :        0.012 s           0.011 s
  | Hartree multipole update                   :        0.005 s           0.004 s
  | Hartree multipole summation                :        0.364 s           0.364 s
  | Integration                                :        1.035 s           1.035 s
  | Solution of K.-S. eqns.                    :        0.057 s           0.058 s
  | Total energy evaluation                    :        0.001 s           0.000 s
------------------------------------------------------------

------------------------------------------------------------
          Begin self-consistency iteration #    7

  Date     :  20150727, Time     :  120429.705
------------------------------------------------------------
  Evaluating new KS density.
  Integration grid: deviation in total charge (<rho> - N_e) =   7.105427E-15
  Pulay mixing of updated and previous charge densities.

  Evaluating partitioned Hartree potential by multipole expansion.
  | Analytical far-field extrapolation by fixed multipoles:
  | Hartree multipole sum: apparent total charge =  -0.484578E-05
  Summing up the Hartree potential.
  Time summed over all CPUs for potential: real work        2.893 s, elapsed        2.905 s
  | RMS charge density error from multipole expansion :   0.180094E-01

  Integrating Hamiltonian matrix: batch-based integration.
  Time summed over all CPUs for integration: real work        8.103 s, elapsed        8.236 s

  Updating Kohn-Sham eigenvalues, eigenvectors, occupation numbers, and Fermi level.
  Solving generalized eigenproblem
  Updating Kohn-Sham eigenvalues and eigenfunctions.
  Solving real generalised eigenvalue problem by standard LAPACK (fast)
  Determining occupation numbers for Kohn-Sham eigenstates.
  | Chemical potential (Fermi level) in eV                 : -.17861362E+01
  | Error in electron count due to remaining E_F inaccuracy: 0.12363444E-11
  | Maximum occupation number of highest empty state:  0.00E+00

  Highest occupied state (VBM) at     -1.78613617 eV
  | Occupation number:      1.00000000

  Lowest unoccupied state (CBM) at    -1.08889965 eV
  | Occupation number:      0.00000000

  Overall HOMO-LUMO gap:      0.69723652 eV.

  Total energy components:
  | Sum of eigenvalues            :        -210.06754932 Ha       -5716.22885550 eV
  | XC energy correction          :         -46.87035313 Ha       -1275.40720059 eV
  | XC potential correction       :          59.91699537 Ha        1630.42439915 eV
  | Free-atom electrostatic energy:        -178.55695266 Ha       -4858.78189394 eV
  | Hartree energy correction     :          -7.70430767 Ha        -209.64487830 eV
  | van der Waals energy corr.    :           0.00000000 Ha           0.00000000 eV
  | Entropy correction            :          -0.00010367 Ha          -0.00282095 eV
  | ---------------------------
  | Total energy                  :        -383.28216740 Ha      -10429.63842918 eV
  | Total energy, T -> 0          :        -383.28227107 Ha      -10429.64125013 eV  <-- do not rely on this value for anything but (periodic) metals
  | Electronic free energy        :        -383.28237474 Ha      -10429.64407108 eV

  Derived energy quantities:
  | Kinetic energy                :         382.33111167 Ha       10403.75888601 eV
  | Electrostatic energy          :        -718.74292595 Ha      -19557.99011460 eV
  | Energy correction for multipole
  | error in Hartree potential    :          -0.00684270 Ha          -0.18619929 eV
  | Sum of eigenvalues per atom                           :        -357.26430347 eV
  | Total energy (T->0) per atom                          :        -651.85257813 eV  <-- do not rely on this value for anything but (periodic) metals
  | Electronic free energy per atom                       :        -651.85275444 eV

  Self-consistency convergence accuracy:
  | Change of charge density      : 0.6810E-02
  | Change of sum of eigenvalues  : -.1670E+01 eV
  | Change of total energy        : 0.8478E-03 eV

  End self-consistency iteration #     7       :  max(cpu_time)    wall_clock(cpu1)
  | Time for this iteration                    :        2.148 s           2.148 s
  | Charge density update                      :        0.677 s           0.677 s
  | Density mixing                             :        0.013 s           0.013 s
  | Hartree multipole update                   :        0.005 s           0.005 s
  | Hartree multipole summation                :        0.364 s           0.364 s
  | Integration                                :        1.031 s           1.031 s
  | Solution of K.-S. eqns.                    :        0.058 s           0.058 s
  | Total energy evaluation                    :        0.000 s           0.000 s
------------------------------------------------------------

------------------------------------------------------------
          Begin self-consistency iteration #    8

  Date     :  20150727, Time     :  120431.853
------------------------------------------------------------
  Evaluating new KS density.
  Integration grid: deviation in total charge (<rho> - N_e) =   1.236344E-12
  Pulay mixing of updated and previous charge densities.

  Evaluating partitioned Hartree potential by multipole expansion.
  | Analytical far-field extrapolation by fixed multipoles:
  | Hartree multipole sum: apparent total charge =  -0.484065E-05
  Summing up the Hartree potential.
  Time summed over all CPUs for potential: real work        2.893 s, elapsed        2.905 s
  | RMS charge density error from multipole expansion :   0.180844E-01

  Integrating Hamiltonian matrix: batch-based integration.
  Time summed over all CPUs for integration: real work        8.101 s, elapsed        8.232 s

  Updating Kohn-Sham eigenvalues, eigenvectors, occupation numbers, and Fermi level.
  Solving generalized eigenproblem
  Updating Kohn-Sham eigenvalues and eigenfunctions.
  Solving real generalised eigenvalue problem by standard LAPACK (fast)
  Determining occupation numbers for Kohn-Sham eigenstates.
  | Chemical potential (Fermi level) in eV                 : -.17962876E+01
  | Error in electron count due to remaining E_F inaccuracy: -.49233506E-09
  | Maximum occupation number of highest empty state:  0.00E+00

  Highest occupied state (VBM) at     -7.46256285 eV
  | Occupation number:      2.00000000

  Lowest unoccupied state (CBM) at    -1.79628762 eV
  | Occupation number:      1.00000000

  Overall HOMO-LUMO gap:      5.66627523 eV.

  Total energy components:
  | Sum of eigenvalues            :        -210.10215168 Ha       -5717.17043374 eV
  | XC energy correction          :         -46.86818384 Ha       -1275.34817116 eV
  | XC potential correction       :          59.91396822 Ha        1630.34202611 eV
  | Free-atom electrostatic energy:        -178.55695266 Ha       -4858.78189394 eV
  | Hartree energy correction     :          -7.66884295 Ha        -208.67983411 eV
  | van der Waals energy corr.    :           0.00000000 Ha           0.00000000 eV
  | Entropy correction            :          -0.00010367 Ha          -0.00282095 eV
  | ---------------------------
  | Total energy                  :        -383.28216291 Ha      -10429.63830684 eV
  | Total energy, T -> 0          :        -383.28226657 Ha      -10429.64112778 eV  <-- do not rely on this value for anything but (periodic) metals
  | Electronic free energy        :        -383.28237024 Ha      -10429.64394873 eV

  Derived energy quantities:
  | Kinetic energy                :         382.33891290 Ha       10403.97116814 eV
  | Electrostatic energy          :        -718.75289197 Ha      -19558.26130382 eV
  | Energy correction for multipole
  | error in Hartree potential    :          -0.00700452 Ha          -0.19060269 eV
  | Sum of eigenvalues per atom                           :        -357.32315211 eV
  | Total energy (T->0) per atom                          :        -651.85257049 eV  <-- do not rely on this value for anything but (periodic) metals
  | Electronic free energy per atom                       :        -651.85274680 eV

  Self-consistency convergence accuracy:
  | Change of charge density      : 0.3285E-02
  | Change of sum of eigenvalues  : -.9416E+00 eV
  | Change of total energy        : 0.1223E-03 eV

  End self-consistency iteration #     8       :  max(cpu_time)    wall_clock(cpu1)
  | Time for this iteration                    :        2.144 s           2.144 s
  | Charge density update                      :        0.672 s           0.672 s
  | Density mixing                             :        0.015 s           0.015 s
  | Hartree multipole update                   :        0.005 s           0.005 s
  | Hartree multipole summation                :        0.364 s           0.364 s
  | Integration                                :        1.030 s           1.030 s
  | Solution of K.-S. eqns.                    :        0.056 s           0.057 s
  | Total energy evaluation                    :        0.000 s           0.001 s
------------------------------------------------------------

------------------------------------------------------------
          Begin self-consistency iteration #    9

  Date     :  20150727, Time     :  120433.997
------------------------------------------------------------
  Evaluating new KS density.
  Integration grid: deviation in total charge (<rho> - N_e) =  -4.922995E-10
  Pulay mixing of updated and previous charge densities.

  Evaluating partitioned Hartree potential by multipole expansion.
  | Analytical far-field extrapolation by fixed multipoles:
  | Hartree multipole sum: apparent total charge =  -0.479599E-05
  Summing up the Hartree potential.
  Time summed over all CPUs for potential: real work        2.893 s, elapsed        2.905 s
  | RMS charge density error from multipole expansion :   0.180681E-01

  Integrating Hamiltonian matrix: batch-based integration.
  Time summed over all CPUs for integration: real work        8.106 s, elapsed        8.236 s

  Updating Kohn-Sham eigenvalues, eigenvectors, occupation numbers, and Fermi level.
  Solving generalized eigenproblem
  Updating Kohn-Sham eigenvalues and eigenfunctions.
  Solving real generalised eigenvalue problem by standard LAPACK (fast)
  Determining occupation numbers for Kohn-Sham eigenstates.
  | Chemical potential (Fermi level) in eV                 : -.17986236E+01
  | Error in electron count due to remaining E_F inaccuracy: -.17440982E-09
  | Maximum occupation number of highest empty state:  0.00E+00

  Highest occupied state (VBM) at     -7.46798570 eV
  | Occupation number:      2.00000000

  Lowest unoccupied state (CBM) at    -1.79862363 eV
  | Occupation number:      1.00000000

  Overall HOMO-LUMO gap:      5.66936207 eV.

  Total energy components:
  | Sum of eigenvalues            :        -210.11228700 Ha       -5717.44622964 eV
  | XC energy correction          :         -46.86723867 Ha       -1275.32245181 eV
  | XC potential correction       :          59.91272337 Ha        1630.30815206 eV
  | Free-atom electrostatic energy:        -178.55695266 Ha       -4858.78189394 eV
  | Hartree energy correction     :          -7.65840626 Ha        -208.39583735 eV
[...]
   Van der Waals               : -.111456E-03 0.242201E-02 0.664582E-03
   ----------------------------------------------------------------
   Total forces(   7)            : 0.374054E+00 0.493696E+00 0.159774E+00
  atom #    8
   Hellmann-Feynman + Multipole  : -.617307E+01 -.664696E+01 0.879531E+01
   Pulay + GGA                   : 0.652044E+01 0.569493E+01 -.618767E+01
   Van der Waals               : -.638421E-02 -.825542E-03 -.183573E-02
   ----------------------------------------------------------------
   Total forces(   8)            : 0.340987E+00 -.952850E+00 0.260581E+01
  atom #    9
   Hellmann-Feynman + Multipole  : 0.908428E-01 0.308045E+00 0.256172E+00
   Pulay + GGA                   : 0.503205E-01 0.742107E-01 0.116782E-01
   Van der Waals               : -.233662E-02 0.369546E-02 0.267612E-02
   ----------------------------------------------------------------
   Total forces(   9)            : 0.138827E+00 0.385951E+00 0.270526E+00
  atom #   10
   Hellmann-Feynman + Multipole  : -.309729E+00 0.314586E+00 -.256229E+01
   Pulay + GGA                   : -.320553E-01 0.232754E-01 -.122894E+00
   Van der Waals               : -.719866E-03 0.218599E-02 0.987778E-04
   ----------------------------------------------------------------
   Total forces(  10)            : -.342504E+00 0.340048E+00 -.268508E+01
  atom #   11
   Hellmann-Feynman + Multipole  : 0.764321E+01 -.422952E+01 -.926352E+01
   Pulay + GGA                   : -.876938E+01 0.545404E+01 0.106139E+02
   Van der Waals               : 0.105965E-03 0.171994E-02 -.722103E-02
   ----------------------------------------------------------------
   Total forces(  11)            : -.112607E+01 0.122624E+01 0.134316E+01
  atom #   12
   Hellmann-Feynman + Multipole  : -.350050E+00 0.296235E+00 -.183624E+01
   Pulay + GGA                   : 0.253203E-01 0.137594E-02 0.138823E+00
   Van der Waals               : -.106889E-03 0.103366E-02 -.240908E-02
   ----------------------------------------------------------------
   Total forces(  12)            : -.324836E+00 0.298645E+00 -.169982E+01
  atom #   13
   Hellmann-Feynman + Multipole  : 0.161584E+01 -.152028E+01 0.444315E+00
   Pulay + GGA                   : -.101671E+00 0.907626E-01 -.104780E-01
   Van der Waals               : -.147906E-02 -.167848E-02 -.116370E-02
   ----------------------------------------------------------------
   Total forces(  13)            : 0.151269E+01 -.143120E+01 0.432674E+00
  atom #   14
   Hellmann-Feynman + Multipole  : -.123572E+02 -.280261E+01 0.280904E+01
   Pulay + GGA                   : 0.129918E+02 0.392601E+01 -.340460E+01
   Van der Waals               : 0.291015E-02 -.507595E-02 0.465799E-02
   ----------------------------------------------------------------
   Total forces(  14)            : 0.637588E+00 0.111832E+01 -.590901E+00
  atom #   15
   Hellmann-Feynman + Multipole  : -.181350E+00 -.120731E+00 0.919232E-01
   Pulay + GGA                   : 0.125583E+00 -.606739E-01 0.242890E-01
   Van der Waals               : 0.190512E-02 -.101122E-02 -.192378E-02
   ----------------------------------------------------------------
   Total forces(  15)            : -.538616E-01 -.182416E+00 0.114288E+00
  atom #   16
   Hellmann-Feynman + Multipole  : -.621204E+00 -.113327E+01 0.510789E+00
   Pulay + GGA                   : 0.476946E-01 0.117192E+00 -.647852E-01
   Van der Waals               : -.852842E-03 -.415973E-02 0.935720E-03
   ----------------------------------------------------------------
   Total forces(  16)            : -.574362E+00 -.102023E+01 0.446939E+00
  Timings for vdw_correction_hirshfeld (Tkatchenko-Scheffler 2009):
  | CPU time:        5.586 s, Wall clock time:        5.587 s.
  Removing unitary transformations (pure translations, rotations) from forces on atoms.
  Atomic forces before filtering:
  | Net force on center of mass :  0.872179E-02 -.678126E-02 0.839229E-02 eV/A
  | Net torque on center of mass:  0.376890E-02 -.736309E-02 -.126584E-01 eV
  Atomic forces after filtering:
  | Net force on center of mass :  -.178406E-15 -.535218E-15 0.000000E+00 eV/A
  | Net torque on center of mass:  0.151054E-14 0.143973E-14 0.000000E+00 eV
 
  Energy and forces in a compact form:
  | Total energy uncorrected      :         -0.104297274414135E+05 eV
  | Total energy corrected        :         -0.104297302623614E+05 eV  <-- do not rely on this value for anything but (periodic) metals
  | Electronic free energy        :         -0.104297330833094E+05 eV
  Total atomic forces (unitary forces cleaned) [eV/Ang]:
  |   1          0.405605094494947E+00          0.124528834788482E+01         -0.150980236332566E+01
  |   2          0.201522699603484E+00         -0.482340615510227E+00          0.101079105955058E+00
  |   3         -0.602712611744480E+00         -0.224405377471389E+00          0.523191680425895E-01
  |   4         -0.463597121316963E-01         -0.194760627040648E+00          0.116226648980714E+01
  |   5         -0.686699897681589E+00         -0.221897550262749E+01         -0.152712190626321E+01
  |   6          0.153475260107450E+00          0.159491855839114E+01          0.132928549305946E+01
  |   7          0.374185365214982E+00          0.493919232247094E+00          0.159400598604813E+00
  |   8          0.340177609843250E+00         -0.952690433600153E+00          0.260535677821696E+01
  |   9          0.137872304247279E+00          0.386221504509203E+00          0.270015945672077E+00
  |  10         -0.343419918378695E+00          0.340155976489922E+00         -0.268552764666373E+01
  |  11         -0.112646146064716E+01          0.122683364457869E+01          0.134258764195628E+01
  |  12         -0.325129240233572E+00          0.299289515128246E+00         -0.170040612876009E+01
  |  13          0.151212147713001E+01         -0.143076957817584E+01          0.432145067203960E+00
  |  14          0.636445002032184E+00          0.111878351742247E+01         -0.591505767801578E+00
  |  15         -0.548928246434714E-01         -0.181759592993210E+00          0.113621553033685E+00
  |  16         -0.575729147212928E+00         -0.101970856923263E+01          0.446285971262257E+00
 
  ------------------------------------ 
  Start decomposition of the XC Energy 
  ------------------------------------ 
  Hartree-Fock part   :          0.000000000 Ha              0.000000000 eV
  ------------------------------------ 
  X Energy            :        -45.207213020 Ha          -1230.150855657 eV
  C Energy GGA        :         -1.660229975 Ha            -45.177156200 eV
  Total XC Energy     :        -46.867442995 Ha          -1275.328011858 eV
  LDA X and C from self-consistent density 
  X Energy LDA        :        -40.755446217 Ha          -1109.012117476 eV
  C Energy LDA        :         -3.338753963 Ha            -90.852117844 eV
  ------------------------------------ 
  End decomposition of the XC Energy 
  ------------------------------------ 
  Performing Hirshfeld analysis of fragment charges and moments.
  ----------------------------------------------------------------------
  | Atom     1: O
  |   Hirshfeld charge        :     -0.13817170
  |   Free atom volume        :     23.95238533
  |   Hirshfeld volume        :     22.11556853
  |   Hirshfeld dipole vector :     -0.00909662       0.02712105       0.03020328
  |   Hirshfeld dipole moment :      0.04159973
  |   Hirshfeld second moments:      0.07604436      -0.00611793      -0.00246389
  |                                 -0.00611793       0.03521804      -0.02679853
  |                                 -0.00246389      -0.02679853       0.04792609
  ----------------------------------------------------------------------
  | Atom     2: H
  |   Hirshfeld charge        :      0.10976377
  |   Free atom volume        :     10.44207651
  |   Hirshfeld volume        :      9.90104760
  |   Hirshfeld dipole vector :     -0.01568409       0.01067652       0.00368142
  |   Hirshfeld dipole moment :      0.01932696
  |   Hirshfeld second moments:      0.03485958       0.01655238       0.00240244
  |                                  0.01655238       0.02671315       0.00998393
  |                                  0.00240244       0.00998393       0.05833541
  ----------------------------------------------------------------------
  | Atom     3: H
  |   Hirshfeld charge        :      0.08733923
  |   Free atom volume        :     10.44207651
  |   Hirshfeld volume        :     14.01310905
  |   Hirshfeld dipole vector :     -0.01320227      -0.00407977       0.01523669
  |   Hirshfeld dipole moment :      0.02056942
  |   Hirshfeld second moments:     -0.07637401      -0.03182978       0.00336899
  |                                 -0.03182978      -0.01087917      -0.00530624
  |                                  0.00336899      -0.00530624      -0.00591701
  ----------------------------------------------------------------------
  | Atom     4: H
  |   Hirshfeld charge        :      0.10596352
  |   Free atom volume        :     10.44207651
  |   Hirshfeld volume        :      9.55276824
  |   Hirshfeld dipole vector :     -0.02140991       0.00182547       0.01693002
  |   Hirshfeld dipole moment :      0.02735584
  |   Hirshfeld second moments:      0.05917171       0.00371141       0.00972587
  |                                  0.00371141       0.06313065       0.00231486
  |                                  0.00972587       0.00231486       0.01726181
  ----------------------------------------------------------------------
  | Atom     5: O
  |   Hirshfeld charge        :     -0.23912906
  |   Free atom volume        :     23.95238533
  |   Hirshfeld volume        :     22.05802290
  |   Hirshfeld dipole vector :     -0.02350320       0.02351701      -0.00229055
  |   Hirshfeld dipole moment :      0.03332712
  |   Hirshfeld second moments:      0.02705361       0.04481680      -0.01101205
  |                                  0.04481680       0.02748859       0.00936267
  |                                 -0.01101205       0.00936267       0.05162196
  ----------------------------------------------------------------------
  | Atom     6: H
  |   Hirshfeld charge        :      0.08509746
  |   Free atom volume        :     10.44207651
  |   Hirshfeld volume        :      9.73059959
  |   Hirshfeld dipole vector :      0.00544618       0.02622837       0.02516132
  |   Hirshfeld dipole moment :      0.03675160
  |   Hirshfeld second moments:      0.03934914      -0.00107651      -0.00127027
  |                                 -0.00107651       0.02470185      -0.01628411
  |                                 -0.00127027      -0.01628411       0.05460648
  ----------------------------------------------------------------------
  | Atom     7: H
  |   Hirshfeld charge        :      0.12769941
  |   Free atom volume        :     10.44207651
  |   Hirshfeld volume        :      9.74779266
  |   Hirshfeld dipole vector :     -0.06762843      -0.04302296       0.01526350
  |   Hirshfeld dipole moment :      0.08159383
  |   Hirshfeld second moments:      0.03922454       0.00982636       0.00478909
  |                                  0.00982636       0.05846665       0.00859952
  |                                  0.00478909       0.00859952       0.06491324
  ----------------------------------------------------------------------
  | Atom     8: O
  |   Hirshfeld charge        :     -0.21770740
  |   Free atom volume        :     23.95238533
  |   Hirshfeld volume        :     22.02781584
  |   Hirshfeld dipole vector :      0.02917345       0.00427019      -0.01534025
  |   Hirshfeld dipole moment :      0.03323624
  |   Hirshfeld second moments:     -0.00215534      -0.00090053       0.03471999
  |                                 -0.00090053       0.05982343       0.00233867
  |                                  0.03471999       0.00233867       0.06573941
  ----------------------------------------------------------------------
  | Atom     9: H
  |   Hirshfeld charge        :      0.09505974
  |   Free atom volume        :     10.44207651
  |   Hirshfeld volume        :     10.07374129
  |   Hirshfeld dipole vector :      0.01030875       0.02951405       0.01236778
  |   Hirshfeld dipole moment :      0.03362010
  |   Hirshfeld second moments:      0.01680992      -0.01441096       0.01329341
  |                                 -0.01441096       0.03852304      -0.01811614
  |                                  0.01329341      -0.01811614       0.05107911
  ----------------------------------------------------------------------
  | Atom    10: H
  |   Hirshfeld charge        :      0.12167220
  |   Free atom volume        :     10.44207651
  |   Hirshfeld volume        :     10.39218118
  |   Hirshfeld dipole vector :     -0.01963873       0.00854924      -0.07373848
  |   Hirshfeld dipole moment :      0.07678628
  |   Hirshfeld second moments:      0.02837954       0.00247326       0.01611320
  |                                  0.00247326       0.06494998       0.00497254
  |                                  0.01611320       0.00497254       0.04072559
  ----------------------------------------------------------------------
  | Atom    11: O
  |   Hirshfeld charge        :     -0.25776627
  |   Free atom volume        :     23.95238533
  |   Hirshfeld volume        :     23.25581310
  |   Hirshfeld dipole vector :     -0.04550154      -0.01545391       0.02208138
  |   Hirshfeld dipole moment :      0.05288479
  |   Hirshfeld second moments:     -0.03887265      -0.03374386       0.04126618
  |                                 -0.03374386       0.01450050      -0.00325267
  |                                  0.04126618      -0.00325267       0.02600945
  ----------------------------------------------------------------------
  | Atom    12: H
  |   Hirshfeld charge        :      0.10411460
  |   Free atom volume        :     10.44207651
  |   Hirshfeld volume        :     10.64831711
  |   Hirshfeld dipole vector :      0.01277923      -0.01629972       0.07419956
  |   Hirshfeld dipole moment :      0.07703613
  |   Hirshfeld second moments:      0.02699328      -0.01788253       0.01925312
  |                                 -0.01788253       0.04456140       0.00372085
  |                                  0.01925312       0.00372085       0.02983530
  ----------------------------------------------------------------------
  | Atom    13: H
  |   Hirshfeld charge        :      0.10475037
  |   Free atom volume        :     10.44207651
  |   Hirshfeld volume        :     10.42093964
  |   Hirshfeld dipole vector :     -0.05553535       0.04142320      -0.01760809
  |   Hirshfeld dipole moment :      0.07148498
  |   Hirshfeld second moments:      0.01783017      -0.00458994       0.00587031
  |                                 -0.00458994       0.02793421       0.00212524
  |                                  0.00587031       0.00212524       0.05753242
  ----------------------------------------------------------------------
  | Atom    14: O
  |   Hirshfeld charge        :     -0.26298111
  |   Free atom volume        :     23.95238533
  |   Hirshfeld volume        :     23.25800049
  |   Hirshfeld dipole vector :      0.02535796      -0.00989447      -0.02616557
  |   Hirshfeld dipole moment :      0.03775664
  |   Hirshfeld second moments:     -0.00462120       0.01036166       0.03676650
  |                                  0.01036166       0.03640474      -0.03386901
  |                                  0.03676650      -0.03386901      -0.02456047
  ----------------------------------------------------------------------
  | Atom    15: H
  |   Hirshfeld charge        :      0.07637565
  |   Free atom volume        :     10.44207651
  |   Hirshfeld volume        :     12.06140988
  |   Hirshfeld dipole vector :      0.02786451      -0.01502844       0.02501586
  |   Hirshfeld dipole moment :      0.04034945
  |   Hirshfeld second moments:     -0.01756645       0.03691270       0.00793520
  |                                  0.03691270       0.02200415      -0.01783340
  |                                  0.00793520      -0.01783340       0.00080433
  ----------------------------------------------------------------------
  | Atom    16: H
  |   Hirshfeld charge        :      0.09789966
  |   Free atom volume        :     10.44207651
  |   Hirshfeld volume        :     11.34333633
  |   Hirshfeld dipole vector :      0.01539161       0.06331224      -0.02919138
  |   Hirshfeld dipole moment :      0.07139663
  |   Hirshfeld second moments:      0.02636155      -0.00124213       0.02030959
  |                                 -0.00124213       0.03444661      -0.00979353
  |                                  0.02030959      -0.00979353       0.00410652
  ----------------------------------------------------------------------


------------------------------------------------------------------------------
  Final output of selected total energy values:

  The following output summarizes some interesting total energy values
  at the end of a run (AFTER all relaxation, molecular dynamics, etc.).

  | Total energy of the DFT / Hartree-Fock s.c.f. calculation      :         -10429.727441414 eV
  | Final zero-broadening corrected energy (caution - metals only) :         -10429.730262361 eV
  | For reference only, the value of 1 Hartree used in FHI-aims is :             27.211384500 eV

  Before relying on these values, please be sure to understand exactly which
  total energy value is referred to by a given number. Different objects may
  all carry the same name 'total energy'. Definitions:

  Total energy of the DFT / Hartree-Fock s.c.f. calculation:
  | Note that this energy does not include ANY quantities calculated after the
  | s.c.f. cycle, in particular not ANY RPA, MP2, etc. many-body perturbation terms.

  Final zero-broadening corrected energy:
  | For metallic systems only, a broadening of the occupation numbers at the Fermi
  | level can be extrapolated back to zero broadening by an electron-gas inspired
  | formula. For all systems that are not real metals, this value can be
  | meaningless and should be avoided.

------------------------------------------------------------------------------

------------------------------------------------------------
          Leaving FHI-aims.
          Date     :  20150727, Time     :  120500.960

          Computational steps:
          | Number of self-consistency cycles          :           17

          Detailed time accounting                     :  max(cpu_time)    wall_clock(cpu1)
          | Total time                                 :       46.889 s          46.925 s
          | Preparation time                           :        0.171 s           0.592 s
          | Grid partitioning                          :        0.135 s           0.135 s
          | Preloading free-atom quantities on grid    :        0.013 s           0.014 s
          | Free-atom superposition energy             :        0.072 s           0.072 s
          | Total time for integrations                :       19.143 s          19.144 s
          | Total time for solution of K.-S. equations :        1.179 s           1.185 s
          | Total time for density & force components  :       17.114 s          17.113 s
          | Total time for mixing                      :        0.238 s           0.233 s
          | Total time for Hartree multipole update    :        0.085 s           0.084 s
          | Total time for Hartree multipole sum       :        7.999 s           8.001 s
          | Total time for total energy evaluation     :        0.008 s           0.008 s
          | Total time for scaled ZORA corrections     :        0.000 s           0.000 s
          | Total time for TS (2009) vdW correction    :        0.059 s           0.059 s

          Have a nice day.
------------------------------------------------------------
