  MPI-parallelism will be employed.
------------------------------------------------------------
          Invoking FHI-aims ...
          Version 081213
          Compiled on 2013/08/29 at 17:41:06 on host generoso.

          When using FHI-aims, please cite the following reference:

          Volker Blum, Ralf Gehrke, Felix Hanke, Paula Havu,
          Ville Havu, Xinguo Ren, Karsten Reuter, and Matthias Scheffler,
          'Ab Initio Molecular Simulations with Numeric Atom-Centered Orbitals: FHI-aims',
          Computer Physics Communications 180, 2175-2196 (2009)

          For any questions about FHI-aims, please visit the aimsclub website
          with its forums and wiki. Contributions to both the forums and the
          wiki are warmly encouraged - they are for you, and everyone is welcome there.

------------------------------------------------------------

  Date     :  20150727, Time     :  115242.233
  Time zero on CPU 1             :   0.479920000000000E-01  s.
  Internal wall clock time zero  :           207229962.233  s.

  Using        8 parallel tasks.
  Task        0 on host gen59 reporting.
  Task        1 on host gen59 reporting.
  Task        2 on host gen59 reporting.
  Task        3 on host gen59 reporting.
  Task        4 on host gen59 reporting.
  Task        5 on host gen59 reporting.
  Task        6 on host gen59 reporting.
  Task        7 on host gen59 reporting.

  Performing system and environment tests:
  | Environment variable OMP_NUM_THREADS correctly set to 1.
  | Checking for scalapack...
  | No scalapack compiled in.

  Obtaining array dimensions for all initial allocations:
  
  -----------------------------------------------------------------------
  Parsing control.in (first pass over file, find array dimensions only).
  The contents of control.in will be repeated verbatim below
  unless switched off by setting 'verbatim_writeout .false.' .
  in the first line of control.in .
  -----------------------------------------------------------------------
  
  #########################################################################################
  #
  #  Volker Blum, FHI 2008 : Test run input file control.in
  #
  #########################################################################################
  #
  #  Physical model
  #
    xc                 rpbe
    spin               none
    relativistic       atomic_zora scalar
    charge             0.
   vdw_correction_hirshfeld
  #
  #  SCF convergence
  #
    occupation_type    gaussian 0.01
    mixer              pulay
      n_max_pulay        10
      charge_mix_param   0.1
    sc_accuracy_rho    5E-5
    sc_accuracy_eev    5E-3
    sc_accuracy_etot   5E-6
    sc_iter_limit      3000
  #
  #  Eigenvalue solver
  #
    KS_method          lapack
      empty_states       8
      basis_threshold    0.e-5
  #
  #  Efficiency
  #
  #   all previous settings are now default, except stratmann still
  #   undecided. Continue to handle stratmann with care, if at all.
  #
  #  partition_type stratmann
    partition_type rho_r2
  #  hartree_partition_type stratmann
  #
  #  Oprions for large clusters (100's of atoms: memory saving / better scaling)
  #
  # for periodic systems:
  #
    density_update_method orbital
    packed_matrix_format none
  #  k_grid 6 6 6
  #  output k_eigenvalue 1
  #  distributed_spline_storage .true.
  #
  #  Relaxation
  #
  #  relax_geometry   bfgs 5.e-3
    sc_accuracy_forces 5.E-4
    final_forces_cleaned .true.
  #
  #  Output options
  #
  #  output mulliken
    output Hirshfeld
  #  output dipole
  
  #harmonic_length_scale 0.001
  
  ################################################################################
  #
  #  FHI-aims code project
  #  VB, Fritz-Haber Institut, 2007
  #
  #  Suggested "safe" defaults for H atom (to be pasted into control.in file)
  #  Basis constructed for a non-relativistic H2 molecule using the
  #  PW-LDA functional.
  #
  ################################################################################
    species        H
  #     global species definitions
      nucleus             1
      cut_pot             4.0  2.0  1.0
      cut_free_atom       finite 8.0
      logarithmic         0.00010000 100.00  1.0123
      basis_dep_cutoff    1d-4  # 1d-4 is safe default - please check 5d-4 if you wish!
      radial_base         24 7.0
      radial_multiplier   2
      angular_grids       specified
        division   0.2783  110
        division   0.3822  194
        division   0.5626  302
  #      division   0.5922  434
  #      division   0.6227  590
  #      division   0.7206  770
        outer_grid  302
      l_hartree           4
  ################################################################################
  #
  #  Definition of "minimal" basis
  #
  ################################################################################
  #     valence basis states
      valence      1  s   1.
  #     ion occupancy
      ion_occ      1  s   0.5
  ################################################################################
  #
  #  Suggested additional basis functions. For production calculations,
  #  uncomment them one after another (the most important basis functions are
  #  listed first).
  #
  ################################################################################
  #  "First tier" - improvements: -1014.90 meV to -62.69 meV
       hydro 2 s 2.1
       hydro 2 p 3.5
  #  "Second tier" - improvements: -12.89 meV to -1.83 meV
       hydro 1 s 0.85
       hydro 2 p 3.7
       hydro 2 s 1.2
       hydro 3 d 7
  #  "Third tier" - improvements: -0.25 meV to -0.12 meV
  #     hydro 4 f 11.2
  #     hydro 3 p 4.8
  #     hydro 4 d 9
  #     hydro 3 s 3.2
  
  ################################################################################
  #
  #  FHI-aims code project
  #  VB, Fritz-Haber Institut, 2007
  #
  #  Suggested "safe" defaults for O atom (to be pasted into control.in file)
  #  All values have been tested for a non-relativistic, non-spinpolarized O2
  #  molecule using the PW-LDA functional. Validity for PBE is expected.
  #
  #  Constructed for dimers: 1.0 A, 1.208 A, 1.5 A, 2.0 A, 3.0 A
  #
  ################################################################################
    species        O
  #     global species definitions
      nucleus             8
      mass                15.9994
      l_hartree           4
      cut_pot             4.0  2.0  1.0
      cut_free_atom       finite 8.0
      basis_dep_cutoff    1d-4  # 1d-4 is safe default - please check 5d-4 if you wish!
      logarithmic         0.00010000 100.00  1.0123
      radial_base         36 7.0
      radial_multiplier   2
       angular_grids specified
        division   0.4087  110
        division   0.5181  194
        division   0.6184  302
  #      division   0.7315  434
  #      division   0.7934  590
  #      division   0.9656  770
  #      division   1.4041  974
  #      outer_grid 974
        outer_grid 302
  ################################################################################
  #
  #  Definition of "minimal" basis
  #
  ################################################################################
  #     valence basis states
      valence      2  s   2.
      valence      2  p   4.
  #     ion occupancy
      ion_occ      2  s   1.
      ion_occ      2  p   3.
  ################################################################################
  #
  #  Suggested additional basis functions. For production calculations,
  #  uncomment them one after another (the most important basis functions are
  #  listed first).
  #
  ################################################################################
  #  "First tier" - improvements: -699.05 meV to -159.38 meV
       hydro 2 p 1.8
       hydro 3 d 7.6
       hydro 3 s 6.4
  #  "Second tier" - improvements: -49.91 meV to -5.39 meV
       hydro 4 f 11.6
       hydro 3 p 6.2
       hydro 3 d 5.6
       hydro 5 g 17.6
       hydro 1 s 0.75
  #  "Third tier" - improvements: -2.83 meV to -0.50 meV
  #     ionic 2 p auto
  #     hydro 4 f 10.8
  #     hydro 4 d 4.7
  #     hydro 2 s 6.8
  #  "Fourth tier" - improvements: -0.40 meV to -0.12 meV
  #     hydro 3 p 5
  #     hydro 3 s 3.3
  #     hydro 5 g 15.6
  #     hydro 4 f 17.6
  #     hydro 4 d 14
  # Further basis functions - -0.08 meV and below
  #     hydro 3 s 2.1
  #     hydro 4 d 11.6
  #     hydro 3 p 16
  #     hydro 2 s 17.2
  
  
  -----------------------------------------------------------------------
  Completed first pass over input file control.in .
  -----------------------------------------------------------------------
  
  
  -----------------------------------------------------------------------
  Parsing geometry.in (first pass over file, find array dimensions only).
  The contents of geometry.in will be repeated verbatim below
  unless switched off by setting 'verbatim_writeout .false.' .
  in the first line of geometry.in .
  -----------------------------------------------------------------------
  
  atom      -4.053030000      0.065001000     -1.525160000  O
  atom      -4.566710000      0.974813000     -1.912820000  H
  atom      -3.067820000      0.330172000     -1.477310000  H
  atom      -4.370360000     -0.049164000     -0.572274000  H
  atom      -4.581760000     -0.256435000      0.939478000  O
  atom      -4.349860000      0.471090000      1.504340000  H
  atom      -5.393870000     -0.726611000      1.228070000  H
  atom      -5.293160000      2.192130000     -2.328800000  O
  atom      -4.829300000      2.988660000     -1.973850000  H
  atom      -5.428570000      2.328640000     -3.235170000  H
  atom      -1.645860000      0.870179000     -1.502250000  O
  atom      -1.568890000      1.501730000     -0.721051000  H
  atom      -0.824432000      0.282220000     -1.377720000  H
  atom      -1.975360000      2.858040000      0.453140000  O
  atom      -1.223550000      3.375850000      0.786238000  H
  atom      -2.537520000      2.567960000      1.156120000  H
  atom      -4.066610000      4.258280000     -0.900064000  O
  atom      -3.224110000      3.876870000     -0.569443000  H
  atom      -3.737450000      5.116530000     -1.322720000  H
  
  -----------------------------------------------------------------------
  Completed first pass over input file geometry.in .
  -----------------------------------------------------------------------
  
 
  Basic array size parameters: 
  | Number of species                 :        2
  | Number of atoms                   :       19
  | Max. basis fn. angular momentum   :        4
  | Max. atomic/ionic basis occupied n:        2
  | Max. number of basis fn. types    :        2
  | Max. radial fns per species/type  :        8
  | Max. logarithmic grid size        :     1301
  | Max. radial integration grid size :       73
  | Max. angular integration grid size:      302
  | Max. angular grid division number :        8
  | Radial grid for Hartree potential :     1301
  | Number of spin channels           :        1

------------------------------------------------------------
          Reading file control.in.
------------------------------------------------------------
  XC: Using RPBE gradient-corrected functionals.
  Spin treatment: No spin polarisation.
  Scalar relativistic treatment of kinetic energy: on-site free-atom approximation to ZORA.
  Charge =   0.000000E+00: Neutral system requested explicitly.
  Using non-empirical van der Waals correction (Hirshfeld partitioning):
  Occupation type: Gaussian broadening, width =   0.100000E-01 eV.
  Using pulay charge density mixing.
  Pulay mixing - number of memorized iterations:   10
  Charge density mixing - mixing parameter:     0.1000
  Convergence accuracy of self-consistent charge density: 0.5000E-04
  Convergence accuracy of sum of eigenvalues: 0.5000E-02
  Convergence accuracy of total energy: 0.5000E-05
  Maximum number of s.-c. iterations  :  3000
  Kohn-Sham eigenvalues and eigenfunctions calculated by lapack diagonalisation (D&C).
  Number of empty states per atom:        8
  Threshold for basis singularities: 0.0000E+00
  Partition function in integrals calculations: rho / r^2
 Using packed matrix format           0
  Convergence accuracy of forces: 0.5000E-03
  Cleaning forces before final output.
  Hirshfeld charge analysis will be performed.
 
  Reading configuration options for species H                   .
  | Found nuclear charge :   1.0000
  | Found cutoff potl. onset [A], width [A], scale factor :    4.00000    2.00000    1.00000
  | Found cutoff specification for free atom: Cutoff potential begins at    8.00000 A.
  | Found logarithmic grid data [bohr] : 0.1000E-03 0.1000E+03 0.1012E+01
  | Threshold for basis-dependent cutoff potential is   0.100000E-03
  | Found data for basic radial integration grid :    24 points, outermost radius =    7.000 A
  | Found multiplier for basic radial grid :   2
  | Found angular grid specification: user-specified.
  | Specified grid contains     4 separate shells.
  | Check grid settings after all constraints further below.
  | Found l_max for Hartree potential  :   4
  | Found free-atom valence shell :  1 s   1.000
  | No ionic wave fns used. Skipping ion_occ.
  | Found hydrogenic basis function :  2 s   2.100
  | Found hydrogenic basis function :  2 p   3.500
  | Found hydrogenic basis function :  1 s   0.850
  | Found hydrogenic basis function :  2 p   3.700
  | Found hydrogenic basis function :  2 s   1.200
  | Found hydrogenic basis function :  3 d   7.000
  Species H                   : Missing cutoff potential type.
  Defaulting to exp(1/x)/(1-x)^2 type cutoff potential.
  Species H : On-site basis accuracy parameter (for Gram-Schmidt orthonormalisation) not specified.
  Using default value basis_acc =  0.1000000E-03.
  Species H                   : Using default innermost maximum threshold i_radial=  2 for radial functions.
  Species H                   : Basic radial grid will be enhanced according to radial_multiplier =   2, to contain    49 grid points.
 
  Reading configuration options for species O                   .
  | Found nuclear charge :   8.0000
  | Found atomic mass :    15.9994000000000      amu
  | Found l_max for Hartree potential  :   4
  | Found cutoff potl. onset [A], width [A], scale factor :    4.00000    2.00000    1.00000
  | Found cutoff specification for free atom: Cutoff potential begins at    8.00000 A.
  | Threshold for basis-dependent cutoff potential is   0.100000E-03
  | Found logarithmic grid data [bohr] : 0.1000E-03 0.1000E+03 0.1012E+01
  | Found data for basic radial integration grid :    36 points, outermost radius =    7.000 A
  | Found multiplier for basic radial grid :   2
  | Found angular grid specification: user-specified.
  | Specified grid contains     4 separate shells.
  | Check grid settings after all constraints further below.
  | Found free-atom valence shell :  2 s   2.000
  | Found free-atom valence shell :  2 p   4.000
  | No ionic wave fns used. Skipping ion_occ.
  | No ionic wave fns used. Skipping ion_occ.
  | Found hydrogenic basis function :  2 p   1.800
  | Found hydrogenic basis function :  3 d   7.600
  | Found hydrogenic basis function :  3 s   6.400
  | Found hydrogenic basis function :  4 f  11.600
  | Found hydrogenic basis function :  3 p   6.200
  | Found hydrogenic basis function :  3 d   5.600
  | Found hydrogenic basis function :  5 g  17.600
  | Found hydrogenic basis function :  1 s   0.750
  Species O                   : Missing cutoff potential type.
  Defaulting to exp(1/x)/(1-x)^2 type cutoff potential.
  Species O : On-site basis accuracy parameter (for Gram-Schmidt orthonormalisation) not specified.
  Using default value basis_acc =  0.1000000E-03.
  Species O                   : Using default innermost maximum threshold i_radial=  2 for radial functions.
  Species O                   : Basic radial grid will be enhanced according to radial_multiplier =   2, to contain    73 grid points.
 
  Finished reading input file 'control.in'. Consistency checks are next.
 
  Target number of points in a grid batch is not set. Defaulting to  100
  Method for grid partitioning is not set. Defaulting to parallel hash+maxmin partitioning.
  Batch size limit is not set. Defaulting to    200
  By default, will store active basis functions for each batch.
  If in need of memory, prune_basis_once .false. can be used to disable this option.
  communication_type for Hartree potential was not specified.
  Defaulting to calc_hartree .
  Pulay mixer: Number of initial linear mixing iterations not set.
  Defaulting to    0 iterations.
  Work space size for distributed Hartree potential not set.
  Defaulting to   0.200000E+03 MB.
  Algorithm-dependent basis array size parameters:
  | n_max_pulay                         :       10
  Geometry relaxation not requested: no relaxation will be performed.
  Handling of forces: Unphysical translation and rotation will be removed from forces.
  No accuracy limit for integral partition fn. given. Defaulting to 0.1000E-14.
  No threshold value for u(r) in integrations given. Defaulting to 0.1000E-05.
  No accuracy for occupation numbers given. Defaulting to 0.1000E-07.
  No threshold value for occupation numbers given. Defaulting to 0.0000E+00.
  No accuracy for fermi level given. Defaulting to 0.1000E-19.
  Maximum # of iterations to find E_F not set. Defaulting to  200.
  Will not use alltoall communication since running on < 1024 CPUs.
  Partitioning for Hartree potential was not defined. Using partition_type for integrals.
  | Reporting present value of keyword multip_moments_threshold  :       0.10000000E-09
  | This value may affect high angular momentum components of the Hartree potential in periodic systems.
  No q(lm)/r^(l+1) cutoff set for long-range Hartree potential.
  | Using default value of  0.100000E-09 .
  | Verify using the multipole_threshold keyword.
  Defaulting to new monopole extrapolation.
  Density update method: Loop over occupied states selected for charge density update.
------------------------------------------------------------


------------------------------------------------------------
          Reading geometry description geometry.in.
------------------------------------------------------------
  Input structure read successfully.
  The structure contains       19 atoms,  and a total of         61.000 electrons.

  Input geometry:
  | No unit cell requested.
  | Atomic structure:
  |       Atom                x [A]            y [A]            z [A]
  |    1: Species O             -4.053030         0.065001        -1.525160
  |    2: Species H             -4.566710         0.974813        -1.912820
  |    3: Species H             -3.067820         0.330172        -1.477310
  |    4: Species H             -4.370360        -0.049164        -0.572274
  |    5: Species O             -4.581760        -0.256435         0.939478
  |    6: Species H             -4.349860         0.471090         1.504340
  |    7: Species H             -5.393870        -0.726611         1.228070
  |    8: Species O             -5.293160         2.192130        -2.328800
  |    9: Species H             -4.829300         2.988660        -1.973850
  |   10: Species H             -5.428570         2.328640        -3.235170
  |   11: Species O             -1.645860         0.870179        -1.502250
  |   12: Species H             -1.568890         1.501730        -0.721051
  |   13: Species H             -0.824432         0.282220        -1.377720
  |   14: Species O             -1.975360         2.858040         0.453140
  |   15: Species H             -1.223550         3.375850         0.786238
  |   16: Species H             -2.537520         2.567960         1.156120
  |   17: Species O             -4.066610         4.258280        -0.900064
  |   18: Species H             -3.224110         3.876870        -0.569443
  |   19: Species H             -3.737450         5.116530        -1.322720
  |

  | The smallest distance between any two atoms is         0.92654057 AA.
  |
  | The first atom of this pair is atom number                      8 .
  | The second atom of this pair is atom number                    10 .

  Structure-dependent array size parameters: 
  | Maximum number of distinct radial functions  :       18
  | Maximum number of basis functions            :      429
  | Number of Kohn-Sham states (occupied + empty):      107
------------------------------------------------------------

------------------------------------------------------------
          Preparing all fixed parts of the calculation.
------------------------------------------------------------
  Determining machine precision:
    2.225073858507201E-308
  Setting up grids for atomic and cluster calculations.

  Creating wave function, potential, and density for free atoms.

  Species: H

  List of occupied orbitals and eigenvalues:
    n    l              occ      energy [Ha]    energy [eV]
    1    0           1.0000        -0.241408        -6.5691


  Species: O

  List of occupied orbitals and eigenvalues:
    n    l              occ      energy [Ha]    energy [eV]
    1    0           2.0000       -18.944147      -515.4965
    2    0           2.0000        -0.883529       -24.0421
    2    1           4.0000        -0.330176        -8.9845

  Creating fixed part of basis set: Ionic, confined, hydrogenic.
 
  H                    hydrogenic:
 
  List of hydrogenic basis orbitals: 
    n    l      effective z      eigenvalue [eV]  inner max. [A]     outer max. [A]     outer radius [A]   
    2    0         2.100000       -14.9965           0.193241           1.317192           5.372934
    2    1         3.500000       -41.6672           0.602363           0.602363           4.056010
    1    0         0.850000        -9.8292           0.624864           0.624864           5.372934
    2    1         3.700000       -46.5653           0.573616           0.573616           3.909951
    2    0         1.200000        -4.5995           0.334977           2.228160           5.505921
    3    2         7.000000       -74.0753           0.680692           0.680692           3.769152
 
 
  O                    hydrogenic:
 
  List of hydrogenic basis orbitals: 
    n    l      effective z      eigenvalue [eV]  inner max. [A]     outer max. [A]     outer radius [A]   
    2    1         1.800000       -11.0118           1.178546           1.178546           5.432516
    3    2         7.600000       -87.3182           0.624117           0.624117           3.541422
    3    0         6.400000       -61.9209           0.061166           1.081887           4.306510
    4    3        11.600000      -114.4238           0.731621           0.731621           3.584982
    3    1         6.200000       -58.1113           0.255677           1.030255           4.306510
    3    2         5.600000       -47.4081           0.847222           0.847222           4.413102
    5    4        17.600000      -168.5799           0.749730           0.749730           3.372413
    1    0         0.750000        -7.6499           0.705275           0.705275           5.366508
 

  Adding cutoff potential to free-atom effective potential.
  Creating atomic-like basis functions for current effective potential.

  Species H                   :

  List of atomic basis orbitals and eigenvalues:
    n    l      energy [Ha]    energy [eV]    outer radius [A]
    1    0        -0.241374        -6.5681       5.372934


  Species O                   :

  List of atomic basis orbitals and eigenvalues:
    n    l      energy [Ha]    energy [eV]    outer radius [A]
    1    0       -18.944147      -515.4965       1.415745
    2    0        -0.883529       -24.0421       5.048305
    2    1        -0.330173        -8.9845       5.301302

  Assembling full basis from fixed parts.
  | Species H :   atomic orbital   1 s accepted.
  | Species H :    hydro orbital   2 s accepted.
  | Species H :    hydro orbital   1 s accepted.
  | Species H :    hydro orbital   2 s accepted.
  | Species H :    hydro orbital   2 p accepted.
  | Species H :    hydro orbital   2 p accepted.
  | Species H :    hydro orbital   3 d accepted.
  | Species O :   atomic orbital   1 s accepted.
  | Species O :    hydro orbital   3 s accepted.
  | Species O :   atomic orbital   2 s accepted.
  | Species O :    hydro orbital   1 s accepted.
  | Species O :    hydro orbital   3 p accepted.
  | Species O :   atomic orbital   2 p accepted.
  | Species O :    hydro orbital   2 p accepted.
  | Species O :    hydro orbital   3 d accepted.
  | Species O :    hydro orbital   3 d accepted.
  | Species O :    hydro orbital   4 f accepted.
  | Species O :    hydro orbital   5 g accepted.
 
  Basis size parameters after reduction:
  | Total number of radial functions:       18
  | Total number of basis functions :      429
 
  Testing on-site integration grid accuracy.
  |  Species  Function  <phi|h_atom|phi> (log., in eV)  <phi|h_atom|phi> (rad., in eV)
           1        1                 -6.5683835025                 -6.5684759159
           1        2                 13.3711789951                 13.3708738703
           1        3                 23.6590910787                 23.6532055418
           1        4                 16.2963827186                 16.1870710655 ***
           1        5                 28.7627214838                 28.7627215090
           1        6                 59.5965249172                 59.5965950857
           1        7                 60.2220506392                 60.2220503827
           2        8               -515.4964576505               -515.4964530710
           2        9                 15.3030791347                 15.3030722972
           2       10                -21.7296094581                -21.7296135470
           2       11                 14.2969371730                 14.2969701621
           2       12                 21.0679693190                 21.0679697493
           2       13                 -2.3833606469                 -2.3833613176
           2       14                 13.7067136422                 13.7066766629
           2       15                 45.8013116808                 45.8013116965
           2       16                 52.2309815402                 52.2309831494
           2       17                 85.4120732416                 85.4120732763
           2       18                142.1019167745                142.1019167817
 * Note: Onsite integrals marked "***" above are less accurate than
 * onsite_accuracy_threshold =    0.03000 eV. Usually, this is harmless.
 * When in doubt, tighten the "radial" and/or "radial_multiplier" flags to check.

  Preparing densities etc. for the partition functions (integrals / Hartree potential).

  Preparations completed.
  max(cpu_time)          :      0.172 s.
  Wall clock time (cpu1) :      0.505 s.
------------------------------------------------------------

------------------------------------------------------------
          Begin self-consistency loop: Initialization.

          Date     :  20150727, Time     :  115242.757
------------------------------------------------------------

  Initializing index lists of integration centers etc. from given atomic structure:
  | Number of centers in hartree potential         :        19
  | Number of centers in hartree multipole         :        19
  | Number of centers in electron density summation:        19
  | Number of centers in basis integrals           :        19
  | Number of centers in integrals                 :        19
  Partitioning the integration grid into batches with parallel hashing+maxmin method.
  | Number of batches:     2560
  | Maximal batch size:     190
  | Minimal batch size:      61
  | Average batch size:      96.737
  | Standard deviation of batch sizes:      32.272

  Integration load balanced across     8 MPI tasks.
  Work distribution over tasks is as follows:
  Task     0 has      30921 integration points.
  Task     1 has      30966 integration points.
  Task     2 has      31052 integration points.
  Task     3 has      30918 integration points.
  Task     4 has      30941 integration points.
  Task     5 has      30986 integration points.
  Task     6 has      30921 integration points.
  Task     7 has      30941 integration points.
  Initializing partition tables, free-atom densities, potentials, etc. across the integration grid (initialize_grid_storage).
  | Net number of integration points:   247646
  | of which are non-zero points    :   247071
  Obtaining max. number of non-zero basis functions in each batch (get_n_compute_maxes).
  | Maximal number of non-zero basis functions:      425 in task     0
  | Maximal number of non-zero basis functions:      425 in task     1
  | Maximal number of non-zero basis functions:      425 in task     2
  | Maximal number of non-zero basis functions:      425 in task     3
  | Maximal number of non-zero basis functions:      425 in task     4
  | Maximal number of non-zero basis functions:      425 in task     5
  | Maximal number of non-zero basis functions:      425 in task     6
  | Maximal number of non-zero basis functions:      425 in task     7
  Integrating Hamiltonian matrix: batch-based integration.
  Time summed over all CPUs for integration: real work       12.826 s, elapsed       13.178 s
  Integrating overlap matrix.
  Time summed over all CPUs for integration: real work        7.008 s, elapsed        7.149 s

  Updating Kohn-Sham eigenvalues, eigenvectors, occupation numbers, and Fermi level.
  Solving generalized eigenproblem
  Updating Kohn-Sham eigenvalues and eigenfunctions.
  Transforming overlap matrix and checking for singularities.
  Overlap matrix is nonsingular:
  | Lowest eigenvalue:  0.185689E-03
  Solving real generalised eigenvalue problem by standard LAPACK (fast)
  Determining occupation numbers for Kohn-Sham eigenstates.
  | Chemical potential (Fermi level) in eV                 : -.27671022E+01
  | Error in electron count due to remaining E_F inaccuracy: 0.64005690E-10
  | Maximum occupation number of highest empty state:  0.00E+00

  Writing Kohn-Sham eigenvalues.

  State    Occupation    Eigenvalue [Ha]    Eigenvalue [eV]
      1       2.00000         -19.065404         -518.79603
      2       2.00000         -19.064965         -518.78409
      3       2.00000         -19.059403         -518.63275
      4       2.00000         -19.059148         -518.62581
      5       2.00000         -19.042967         -518.18550
      6       2.00000         -19.042597         -518.17542
      7       2.00000          -1.132181          -30.80821
      8       2.00000          -1.117826          -30.41759
      9       2.00000          -1.111592          -30.24795
     10       2.00000          -1.104148          -30.04539
     11       2.00000          -1.086541          -29.56628
     12       2.00000          -1.081589          -29.43153
     13       2.00000          -0.654027          -17.79699
     14       2.00000          -0.652855          -17.76508
     15       2.00000          -0.650897          -17.71182
     16       2.00000          -0.647767          -17.62664
     17       2.00000          -0.627293          -17.06951
     18       2.00000          -0.610140          -16.60276
     19       2.00000          -0.607039          -16.51837
     20       2.00000          -0.544769          -14.82392
     21       2.00000          -0.522087          -14.20672
     22       2.00000          -0.509637          -13.86792
     23       2.00000          -0.506839          -13.79180
     24       2.00000          -0.499401          -13.58940
     25       2.00000          -0.483157          -13.14738
     26       2.00000          -0.453114          -12.32985
     27       2.00000          -0.448328          -12.19963
     28       2.00000          -0.446107          -12.13918
     29       2.00000          -0.435930          -11.86227
     30       2.00000          -0.433395          -11.79328
     31       1.00000          -0.101689           -2.76710
     32       0.00000          -0.068339           -1.85961
     33       0.00000          -0.061881           -1.68386
     34       0.00000          -0.057801           -1.57286
     35       0.00000          -0.033928           -0.92322
     36       0.00000          -0.015114           -0.41129
     37       0.00000           0.007216            0.19635
     38       0.00000           0.025329            0.68923
     39       0.00000           0.035386            0.96291
     40       0.00000           0.041196            1.12099
     41       0.00000           0.045227            1.23068
     42       0.00000           0.053859            1.46558
     43       0.00000           0.066437            1.80784
     44       0.00000           0.066873            1.81971
     45       0.00000           0.079073            2.15169
     46       0.00000           0.085169            2.31757
     47       0.00000           0.092051            2.50484
     48       0.00000           0.096047            2.61356
     49       0.00000           0.105844            2.88015
     50       0.00000           0.108025            2.93951
     51       0.00000           0.115297            3.13739
     52       0.00000           0.119298            3.24627
     53       0.00000           0.127674            3.47419
     54       0.00000           0.135437            3.68543
     55       0.00000           0.140007            3.80979
     56       0.00000           0.141246            3.84351
     57       0.00000           0.146684            3.99147
     58       0.00000           0.153300            4.17151
     59       0.00000           0.175597            4.77825
     60       0.00000           0.184996            5.03400
     61       0.00000           0.186217            5.06722
     62       0.00000           0.218971            5.95851
     63       0.00000           0.228457            6.21664
     64       0.00000           0.236764            6.44268
     65       0.00000           0.241884            6.58200
     66       0.00000           0.251407            6.84113
     67       0.00000           0.261104            7.10500
     68       0.00000           0.267321            7.27417
     69       0.00000           0.291495            7.93199
     70       0.00000           0.300668            8.18159
     71       0.00000           0.306728            8.34649
     72       0.00000           0.311534            8.47728
     73       0.00000           0.326179            8.87578
     74       0.00000           0.345992            9.41493
     75       0.00000           0.357294            9.72247
     76       0.00000           0.365443            9.94420
     77       0.00000           0.373059           10.15144
     78       0.00000           0.385481           10.48947
     79       0.00000           0.389455           10.59761
     80       0.00000           0.398850           10.85326
     81       0.00000           0.416895           11.34428
     82       0.00000           0.431841           11.75099
     83       0.00000           0.434412           11.82096
     84       0.00000           0.443503           12.06833
     85       0.00000           0.449436           12.22977
     86       0.00000           0.457452           12.44791
     87       0.00000           0.469863           12.78561
     88       0.00000           0.489050           13.30772
     89       0.00000           0.498439           13.56322
     90       0.00000           0.521083           14.17938
     91       0.00000           0.540625           14.71115
     92       0.00000           0.553065           15.04966
     93       0.00000           0.558028           15.18472
     94       0.00000           0.569632           15.50048
     95       0.00000           0.594948           16.18936
     96       0.00000           0.614705           16.72698
     97       0.00000           0.630806           17.16510
     98       0.00000           0.654550           17.81121
     99       0.00000           0.681801           18.55276
    100       0.00000           0.688900           18.74591
    101       0.00000           0.720319           19.60087
    102       0.00000           0.745339           20.28171
    103       0.00000           0.764594           20.80565
    104       0.00000           0.776521           21.13021
    105       0.00000           0.783527           21.32086
    106       0.00000           0.798708           21.73395
    107       0.00000           0.815142           22.18115

  Highest occupied state (VBM) at     -2.76710218 eV
  | Occupation number:      1.00000000

  Lowest unoccupied state (CBM) at    -1.85960873 eV
  | Occupation number:      0.00000000

  Overall HOMO-LUMO gap:      0.90749345 eV.
  Calculating total energy contributions from superposition of free atom densities.

  Total energy components:
  | Sum of eigenvalues            :        -261.50397598 Ha       -7115.88523874 eV
  | XC energy correction          :         -55.13198099 Ha       -1500.21753293 eV
  | XC potential correction       :          70.47326086 Ha        1917.67499818 eV
  | Free-atom electrostatic energy:        -214.00142540 Ha       -5823.27507023 eV
  | Hartree energy correction     :           0.00000000 Ha           0.00000000 eV
  | van der Waals energy corr.    :           0.00000000 Ha           0.00000000 eV
  | Entropy correction            :          -0.00010367 Ha          -0.00282095 eV
  | ---------------------------
  | Total energy                  :        -460.16412152 Ha      -12521.70284372 eV
  | Total energy, T -> 0          :        -460.16422519 Ha      -12521.70566467 eV  <-- do not rely on this value for anything but (periodic) metals
  | Electronic free energy        :        -460.16432885 Ha      -12521.70848562 eV

  Derived energy quantities:
  | Kinetic energy                :         455.83806713 Ha       12403.98491437 eV
  | Electrostatic energy          :        -860.87020766 Ha      -23425.47022516 eV
  | Energy correction for multipole
  | error in Hartree potential    :           0.00000000 Ha           0.00000000 eV
  | Sum of eigenvalues per atom                           :        -374.52027572 eV
  | Total energy (T->0) per atom                          :        -659.03714025 eV  <-- do not rely on this value for anything but (periodic) metals
  | Electronic free energy per atom                       :        -659.03728872 eV
  Initialize hartree_potential_storage
  Max. number of atoms included in rho_multipole:           19

  End scf initialization - timings             :  max(cpu_time)    wall_clock(cpu1)
  | Time for scf. initialization               :        3.397 s           3.398 s
  | Boundary condition initialization          :        0.000 s           0.001 s
  | Integration                                :        2.547 s           2.547 s
  | Solution of K.-S. eqns.                    :        0.338 s           0.337 s
  | Grid partitioning                          :        0.189 s           0.188 s
  | Preloading free-atom quantities on grid    :        0.014 s           0.013 s
  | Free-atom superposition energy             :        0.099 s           0.099 s
  | Total energy evaluation                    :        0.000 s           0.001 s
------------------------------------------------------------

------------------------------------------------------------
          Begin self-consistency iteration #    1

  Date     :  20150727, Time     :  115246.155
------------------------------------------------------------
  Evaluating new KS density.
  Integration grid: deviation in total charge (<rho> - N_e) =   6.400569E-11
  Pulay mixing of updated and previous charge densities.

  Evaluating partitioned Hartree potential by multipole expansion.
  | Analytical far-field extrapolation by fixed multipoles:
  | Hartree multipole sum: apparent total charge =  -0.143027E-05
  Summing up the Hartree potential.
  Time summed over all CPUs for potential: real work        4.066 s, elapsed        4.081 s
  | RMS charge density error from multipole expansion :   0.186321E-02

  Integrating Hamiltonian matrix: batch-based integration.
  Time summed over all CPUs for integration: real work       12.794 s, elapsed       13.152 s

  Updating Kohn-Sham eigenvalues, eigenvectors, occupation numbers, and Fermi level.
  Solving generalized eigenproblem
  Updating Kohn-Sham eigenvalues and eigenfunctions.
  Solving real generalised eigenvalue problem by standard LAPACK (fast)
  Determining occupation numbers for Kohn-Sham eigenstates.
  | Chemical potential (Fermi level) in eV                 : -.25171017E+01
  | Error in electron count due to remaining E_F inaccuracy: 0.46923532E-09
  | Maximum occupation number of highest empty state:  0.00E+00

  Writing Kohn-Sham eigenvalues.

  State    Occupation    Eigenvalue [Ha]    Eigenvalue [eV]
      1       2.00000         -19.004219         -517.13110
      2       2.00000         -18.993799         -516.84756
      3       2.00000         -18.987201         -516.66804
      4       2.00000         -18.984493         -516.59435
      5       2.00000         -18.971916         -516.25210
      6       2.00000         -18.966516         -516.10515
      7       2.00000          -1.100316          -29.94113
      8       2.00000          -1.083397          -29.48074
      9       2.00000          -1.074857          -29.24835
     10       2.00000          -1.069817          -29.11120
     11       2.00000          -1.047396          -28.50111
     12       2.00000          -1.045911          -28.46070
     13       2.00000          -0.623774          -16.97376
     14       2.00000          -0.622909          -16.95023
     15       2.00000          -0.619986          -16.87068
     16       2.00000          -0.619147          -16.84784
     17       2.00000          -0.599988          -16.32651
     18       2.00000          -0.578149          -15.73223
     19       2.00000          -0.574458          -15.63180
     20       2.00000          -0.512057          -13.93377
     21       2.00000          -0.486394          -13.23545
     22       2.00000          -0.474134          -12.90185
     23       2.00000          -0.471058          -12.81815
     24       2.00000          -0.462449          -12.58387
     25       2.00000          -0.449815          -12.24008
     26       2.00000          -0.417201          -11.35262
     27       2.00000          -0.410336          -11.16581
     28       2.00000          -0.409893          -11.15376
     29       2.00000          -0.399020          -10.85789
     30       2.00000          -0.393036          -10.69505
     31       1.00000          -0.092502           -2.51710
     32       0.00000          -0.060369           -1.64271
     33       0.00000          -0.053807           -1.46415
     34       0.00000          -0.049347           -1.34280
     35       0.00000          -0.026220           -0.71348
     36       0.00000          -0.008701           -0.23678
     37       0.00000           0.017173            0.46730
     38       0.00000           0.035679            0.97088
     39       0.00000           0.045095            1.22710
     40       0.00000           0.049128            1.33685
     41       0.00000           0.052493            1.42841
     42       0.00000           0.060352            1.64226
     43       0.00000           0.074512            2.02756
     44       0.00000           0.076304            2.07634
     45       0.00000           0.089949            2.44764
     46       0.00000           0.093841            2.55353
     47       0.00000           0.102620            2.79244
     48       0.00000           0.104587            2.84595
     49       0.00000           0.113442            3.08692
     50       0.00000           0.121765            3.31339
     51       0.00000           0.127127            3.45931
     52       0.00000           0.131903            3.58927
     53       0.00000           0.136072            3.70271
     54       0.00000           0.145934            3.97108
     55       0.00000           0.148839            4.05012
     56       0.00000           0.153689            4.18209
     57       0.00000           0.158019            4.29991
     58       0.00000           0.167552            4.55933
     59       0.00000           0.184095            5.00948
     60       0.00000           0.193737            5.27184
     61       0.00000           0.194677            5.29742
     62       0.00000           0.227720            6.19658
     63       0.00000           0.237814            6.47124
     64       0.00000           0.244498            6.65312
     65       0.00000           0.250859            6.82622
     66       0.00000           0.259904            7.07236
     67       0.00000           0.269479            7.33290
     68       0.00000           0.275690            7.50190
     69       0.00000           0.299641            8.15365
     70       0.00000           0.307120            8.35715
     71       0.00000           0.313439            8.52911
     72       0.00000           0.320250            8.71445
     73       0.00000           0.334379            9.09893
     74       0.00000           0.353874            9.62941
     75       0.00000           0.364700            9.92400
     76       0.00000           0.374237           10.18350
     77       0.00000           0.382452           10.40705
     78       0.00000           0.393736           10.71410
     79       0.00000           0.399255           10.86429
     80       0.00000           0.407908           11.09975
     81       0.00000           0.426143           11.59595
     82       0.00000           0.440589           11.98903
     83       0.00000           0.442882           12.05143
     84       0.00000           0.452561           12.31482
     85       0.00000           0.458224           12.46892
     86       0.00000           0.466449           12.69271
     87       0.00000           0.480931           13.08679
     88       0.00000           0.499186           13.58355
     89       0.00000           0.507653           13.81393
     90       0.00000           0.531550           14.46422
     91       0.00000           0.551657           15.01134
     92       0.00000           0.564184           15.35222
     93       0.00000           0.567697           15.44782
     94       0.00000           0.579913           15.78023
     95       0.00000           0.607045           16.51852
     96       0.00000           0.626733           17.05427
     97       0.00000           0.641693           17.46135
     98       0.00000           0.665376           18.10581
     99       0.00000           0.693952           18.88339
    100       0.00000           0.700972           19.07441
    101       0.00000           0.732938           19.94425
    102       0.00000           0.756087           20.57417
    103       0.00000           0.775852           21.11199
    104       0.00000           0.788202           21.44808
    105       0.00000           0.794485           21.61905
    106       0.00000           0.810771           22.06219
    107       0.00000           0.825008           22.44962

  Highest occupied state (VBM) at     -2.51710170 eV
  | Occupation number:      1.00000000

  Lowest unoccupied state (CBM) at    -1.64271292 eV
  | Occupation number:      0.00000000

  Overall HOMO-LUMO gap:      0.87438878 eV.

  Total energy components:
  | Sum of eigenvalues            :        -258.99978948 Ha       -7047.74285689 eV
  | XC energy correction          :         -55.39847018 Ha       -1507.46907277 eV
  | XC potential correction       :          70.82083769 Ha        1927.13304503 eV
  | Free-atom electrostatic energy:        -214.00142540 Ha       -5823.27507023 eV
  | Hartree energy correction     :          -2.44505850 Ha         -66.53342689 eV
  | van der Waals energy corr.    :           0.00000000 Ha           0.00000000 eV
  | Entropy correction            :          -0.00010367 Ha          -0.00282095 eV
  | ---------------------------
  | Total energy                  :        -460.02390587 Ha      -12517.88738175 eV
  | Total energy, T -> 0          :        -460.02400954 Ha      -12517.89020270 eV  <-- do not rely on this value for anything but (periodic) metals
  | Electronic free energy        :        -460.02411320 Ha      -12517.89302365 eV

  Derived energy quantities:
  | Kinetic energy                :         457.46183983 Ha       12448.17001771 eV
  | Electrostatic energy          :        -862.08727552 Ha      -23458.58832669 eV
  | Energy correction for multipole
  | error in Hartree potential    :           0.00035117 Ha           0.00955573 eV
  | Sum of eigenvalues per atom                           :        -370.93383457 eV
  | Total energy (T->0) per atom                          :        -658.83632646 eV  <-- do not rely on this value for anything but (periodic) metals
  | Electronic free energy per atom                       :        -658.83647493 eV

  Self-consistency convergence accuracy:
  | Change of charge density      : 0.6970E+00
  | Change of sum of eigenvalues  : 0.6814E+02 eV
  | Change of total energy        : 0.3815E+01 eV

  End self-consistency iteration #     1       :  max(cpu_time)    wall_clock(cpu1)
  | Time for this iteration                    :        3.355 s           3.356 s
  | Charge density update                      :        1.095 s           1.095 s
  | Density mixing                             :        0.005 s           0.004 s
  | Hartree multipole update                   :        0.006 s           0.007 s
  | Hartree multipole summation                :        0.511 s           0.511 s
  | Integration                                :        1.647 s           1.646 s
  | Solution of K.-S. eqns.                    :        0.091 s           0.092 s
  | Total energy evaluation                    :        0.000 s           0.001 s
------------------------------------------------------------

------------------------------------------------------------
          Begin self-consistency iteration #    2

  Date     :  20150727, Time     :  115249.511
------------------------------------------------------------
  Evaluating new KS density.
  Integration grid: deviation in total charge (<rho> - N_e) =   4.692495E-10
  Pulay mixing of updated and previous charge densities.

  Evaluating partitioned Hartree potential by multipole expansion.
  | Analytical far-field extrapolation by fixed multipoles:
  | Hartree multipole sum: apparent total charge =  -0.440460E-05
  Summing up the Hartree potential.
  Time summed over all CPUs for potential: real work        4.067 s, elapsed        4.081 s
  | RMS charge density error from multipole expansion :   0.768418E-02

  Integrating Hamiltonian matrix: batch-based integration.
  Time summed over all CPUs for integration: real work       12.787 s, elapsed       13.143 s

  Updating Kohn-Sham eigenvalues, eigenvectors, occupation numbers, and Fermi level.
  Solving generalized eigenproblem
  Updating Kohn-Sham eigenvalues and eigenfunctions.
  Solving real generalised eigenvalue problem by standard LAPACK (fast)
  Determining occupation numbers for Kohn-Sham eigenstates.
  | Chemical potential (Fermi level) in eV                 : -.19265465E+01
  | Error in electron count due to remaining E_F inaccuracy: -.40143817E-08
  | Maximum occupation number of highest empty state:  0.00E+00

  Highest occupied state (VBM) at     -8.00463568 eV
  | Occupation number:      2.00000000

  Lowest unoccupied state (CBM) at    -1.92654651 eV
  | Occupation number:      1.00000000

  Overall HOMO-LUMO gap:      6.07808916 eV.

  Total energy components:
  | Sum of eigenvalues            :        -252.83191958 Ha       -6879.90657763 eV
  | XC energy correction          :         -56.09004737 Ha       -1526.28784563 eV
  | XC potential correction       :          71.72084331 Ha        1951.62344406 eV
  | Free-atom electrostatic energy:        -214.00142540 Ha       -5823.27507023 eV
  | Hartree energy correction     :          -8.66011213 Ha        -235.65364105 eV
  | van der Waals energy corr.    :           0.00000000 Ha           0.00000000 eV
  | Entropy correction            :          -0.00010367 Ha          -0.00282095 eV
  | ---------------------------
  | Total energy                  :        -459.86266118 Ha      -12513.49969049 eV
  | Total energy, T -> 0          :        -459.86276485 Ha      -12513.50251143 eV  <-- do not rely on this value for anything but (periodic) metals
  | Electronic free energy        :        -459.86286851 Ha      -12513.50533238 eV

  Derived energy quantities:
  | Kinetic energy                :         460.95368621 Ha       12543.18799202 eV
  | Electrostatic energy          :        -864.72630001 Ha      -23530.39983687 eV
  | Energy correction for multipole
  | error in Hartree potential    :           0.00021823 Ha           0.00593837 eV
  | Sum of eigenvalues per atom                           :        -362.10034619 eV
  | Total energy (T->0) per atom                          :        -658.60539534 eV  <-- do not rely on this value for anything but (periodic) metals
  | Electronic free energy per atom                       :        -658.60554381 eV

  Self-consistency convergence accuracy:
  | Change of charge density      : 0.5312E+00
  | Change of sum of eigenvalues  : 0.1678E+03 eV
  | Change of total energy        : 0.4388E+01 eV

  End self-consistency iteration #     2       :  max(cpu_time)    wall_clock(cpu1)
  | Time for this iteration                    :        3.348 s           3.349 s
  | Charge density update                      :        1.087 s           1.087 s
  | Density mixing                             :        0.007 s           0.007 s
  | Hartree multipole update                   :        0.006 s           0.006 s
  | Hartree multipole summation                :        0.511 s           0.511 s
  | Integration                                :        1.646 s           1.645 s
  | Solution of K.-S. eqns.                    :        0.092 s           0.092 s
  | Total energy evaluation                    :        0.000 s           0.000 s
------------------------------------------------------------

------------------------------------------------------------
          Begin self-consistency iteration #    3

  Date     :  20150727, Time     :  115252.860
------------------------------------------------------------
  Evaluating new KS density.
  Integration grid: deviation in total charge (<rho> - N_e) =  -4.014360E-09
  Pulay mixing of updated and previous charge densities.

  Evaluating partitioned Hartree potential by multipole expansion.
  | Analytical far-field extrapolation by fixed multipoles:
  | Hartree multipole sum: apparent total charge =  -0.391925E-05
  Summing up the Hartree potential.
  Time summed over all CPUs for potential: real work        4.067 s, elapsed        4.081 s
  | RMS charge density error from multipole expansion :   0.158632E-01

  Integrating Hamiltonian matrix: batch-based integration.
  Time summed over all CPUs for integration: real work       12.793 s, elapsed       13.143 s

  Updating Kohn-Sham eigenvalues, eigenvectors, occupation numbers, and Fermi level.
  Solving generalized eigenproblem
  Updating Kohn-Sham eigenvalues and eigenfunctions.
  Solving real generalised eigenvalue problem by standard LAPACK (fast)
  Determining occupation numbers for Kohn-Sham eigenstates.
  | Chemical potential (Fermi level) in eV                 : -.18365620E+01
  | Error in electron count due to remaining E_F inaccuracy: 0.00000000E+00
  | Maximum occupation number of highest empty state:  0.00E+00

  Highest occupied state (VBM) at     -1.83656197 eV
  | Occupation number:      1.00000000

  Lowest unoccupied state (CBM) at    -1.83656197 eV
  | Occupation number:      1.00000000

  Overall HOMO-LUMO gap:      0.00000000 eV.

  Total energy components:
  | Sum of eigenvalues            :        -253.08275685 Ha       -6886.73220701 eV
  | XC energy correction          :         -56.10885276 Ha       -1526.79956639 eV
  | XC potential correction       :          71.73437250 Ha        1951.99159183 eV
  | Free-atom electrostatic energy:        -214.00142540 Ha       -5823.27507023 eV
  | Hartree energy correction     :          -8.40221613 Ha        -228.63593372 eV
  | van der Waals energy corr.    :           0.00000000 Ha           0.00000000 eV
  | Entropy correction            :          -0.00010367 Ha          -0.00282095 eV
  | ---------------------------
  | Total energy                  :        -459.86087865 Ha      -12513.45118552 eV
  | Total energy, T -> 0          :        -459.86098232 Ha      -12513.45400647 eV  <-- do not rely on this value for anything but (periodic) metals
  | Electronic free energy        :        -459.86108599 Ha      -12513.45682742 eV

  Derived energy quantities:
  | Kinetic energy                :         458.82989881 Ha       12485.39679663 eV
  | Electrostatic energy          :        -862.58192470 Ha      -23472.04841576 eV
  | Energy correction for multipole
  | error in Hartree potential    :          -0.00607359 Ha          -0.16527076 eV
  | Sum of eigenvalues per atom                           :        -362.45958984 eV
  | Total energy (T->0) per atom                          :        -658.60284245 eV  <-- do not rely on this value for anything but (periodic) metals
  | Electronic free energy per atom                       :        -658.60299092 eV

  Self-consistency convergence accuracy:
  | Change of charge density      : 0.2519E+00
  | Change of sum of eigenvalues  : -.6826E+01 eV
  | Change of total energy        : 0.4850E-01 eV

  End self-consistency iteration #     3       :  max(cpu_time)    wall_clock(cpu1)
  | Time for this iteration                    :        3.349 s           3.349 s
  | Charge density update                      :        1.087 s           1.086 s
  | Density mixing                             :        0.008 s           0.009 s
  | Hartree multipole update                   :        0.007 s           0.006 s
  | Hartree multipole summation                :        0.511 s           0.511 s
  | Integration                                :        1.645 s           1.646 s
  | Solution of K.-S. eqns.                    :        0.090 s           0.090 s
  | Total energy evaluation                    :        0.001 s           0.000 s
------------------------------------------------------------

------------------------------------------------------------
          Begin self-consistency iteration #    4

  Date     :  20150727, Time     :  115256.209
------------------------------------------------------------
  Evaluating new KS density.
  Integration grid: deviation in total charge (<rho> - N_e) =   7.105427E-15
  Pulay mixing of updated and previous charge densities.

  Evaluating partitioned Hartree potential by multipole expansion.
  | Analytical far-field extrapolation by fixed multipoles:
  | Hartree multipole sum: apparent total charge =  -0.436345E-05
  Summing up the Hartree potential.
  Time summed over all CPUs for potential: real work        4.066 s, elapsed        4.081 s
  | RMS charge density error from multipole expansion :   0.190297E-01

  Integrating Hamiltonian matrix: batch-based integration.
  Time summed over all CPUs for integration: real work       12.795 s, elapsed       13.144 s

  Updating Kohn-Sham eigenvalues, eigenvectors, occupation numbers, and Fermi level.
  Solving generalized eigenproblem
  Updating Kohn-Sham eigenvalues and eigenfunctions.
  Solving real generalised eigenvalue problem by standard LAPACK (fast)
  Determining occupation numbers for Kohn-Sham eigenstates.
  | Chemical potential (Fermi level) in eV                 : -.17304607E+01
  | Error in electron count due to remaining E_F inaccuracy: 0.00000000E+00
  | Maximum occupation number of highest empty state:  0.00E+00

  Highest occupied state (VBM) at     -1.73046072 eV
  | Occupation number:      1.00000000

  Lowest unoccupied state (CBM) at    -1.73046072 eV
  | Occupation number:      1.00000000

  Overall HOMO-LUMO gap:      0.00000000 eV.

  Total energy components:
  | Sum of eigenvalues            :        -252.01393936 Ha       -6857.64820334 eV
  | XC energy correction          :         -56.25470258 Ha       -1530.76834183 eV
  | XC potential correction       :          71.92164353 Ha        1957.08749595 eV
  | Free-atom electrostatic energy:        -214.00142540 Ha       -5823.27507023 eV
  | Hartree energy correction     :          -9.50786491 Ha        -258.72216787 eV
  | van der Waals energy corr.    :           0.00000000 Ha           0.00000000 eV
  | Entropy correction            :          -0.00010367 Ha          -0.00282095 eV
  | ---------------------------
  | Total energy                  :        -459.85628873 Ha      -12513.32628731 eV
  | Total energy, T -> 0          :        -459.85639240 Ha      -12513.32910825 eV  <-- do not rely on this value for anything but (periodic) metals
  | Electronic free energy        :        -459.85649606 Ha      -12513.33192920 eV

  Derived energy quantities:
  | Kinetic energy                :         458.91677573 Ha       12487.76083779 eV
  | Electrostatic energy          :        -862.51836187 Ha      -23470.31878327 eV
  | Energy correction for multipole
  | error in Hartree potential    :          -0.00781892 Ha          -0.21276355 eV
  | Sum of eigenvalues per atom                           :        -360.92885281 eV
  | Total energy (T->0) per atom                          :        -658.59626886 eV  <-- do not rely on this value for anything but (periodic) metals
  | Electronic free energy per atom                       :        -658.59641733 eV

  Self-consistency convergence accuracy:
  | Change of charge density      : 0.1051E+00
  | Change of sum of eigenvalues  : 0.2908E+02 eV
  | Change of total energy        : 0.1249E+00 eV

  End self-consistency iteration #     4       :  max(cpu_time)    wall_clock(cpu1)
  | Time for this iteration                    :        3.350 s           3.350 s
  | Charge density update                      :        1.085 s           1.085 s
  | Density mixing                             :        0.010 s           0.010 s
  | Hartree multipole update                   :        0.007 s           0.007 s
  | Hartree multipole summation                :        0.511 s           0.511 s
  | Integration                                :        1.645 s           1.645 s
  | Solution of K.-S. eqns.                    :        0.092 s           0.092 s
  | Total energy evaluation                    :        0.001 s           0.000 s
------------------------------------------------------------

------------------------------------------------------------
          Begin self-consistency iteration #    5

  Date     :  20150727, Time     :  115259.560
------------------------------------------------------------
  Evaluating new KS density.
  Integration grid: deviation in total charge (<rho> - N_e) =   7.105427E-15
  Pulay mixing of updated and previous charge densities.

  Evaluating partitioned Hartree potential by multipole expansion.
  | Analytical far-field extrapolation by fixed multipoles:
  | Hartree multipole sum: apparent total charge =  -0.434970E-05
  Summing up the Hartree potential.
  Time summed over all CPUs for potential: real work        4.066 s, elapsed        4.080 s
  | RMS charge density error from multipole expansion :   0.198205E-01

  Integrating Hamiltonian matrix: batch-based integration.
  Time summed over all CPUs for integration: real work       12.832 s, elapsed       13.265 s

  Updating Kohn-Sham eigenvalues, eigenvectors, occupation numbers, and Fermi level.
  Solving generalized eigenproblem
  Updating Kohn-Sham eigenvalues and eigenfunctions.
  Solving real generalised eigenvalue problem by standard LAPACK (fast)
  Determining occupation numbers for Kohn-Sham eigenstates.
  | Chemical potential (Fermi level) in eV                 : -.17401862E+01
  | Error in electron count due to remaining E_F inaccuracy: -.41064609E-08
  | Maximum occupation number of highest empty state:  0.00E+00

  Highest occupied state (VBM) at     -7.29321226 eV
  | Occupation number:      2.00000000

  Lowest unoccupied state (CBM) at    -1.74018619 eV
  | Occupation number:      1.00000000

  Overall HOMO-LUMO gap:      5.55302607 eV.

  Total energy components:
  | Sum of eigenvalues            :        -251.87697048 Ha       -6853.92109050 eV
  | XC energy correction          :         -56.27604900 Ha       -1531.34920759 eV
  | XC potential correction       :          71.94848712 Ha        1957.81794717 eV
  | Free-atom electrostatic energy:        -214.00142540 Ha       -5823.27507023 eV
  | Hartree energy correction     :          -9.64999448 Ha        -262.58971035 eV
  | van der Waals energy corr.    :           0.00000000 Ha           0.00000000 eV
  | Entropy correction            :          -0.00010367 Ha          -0.00282095 eV
  | ---------------------------
  | Total energy                  :        -459.85595226 Ha      -12513.31713151 eV
  | Total energy, T -> 0          :        -459.85605593 Ha      -12513.31995246 eV  <-- do not rely on this value for anything but (periodic) metals
  | Electronic free energy        :        -459.85615959 Ha      -12513.32277341 eV

  Derived energy quantities:
  | Kinetic energy                :         458.91765376 Ha       12487.78473034 eV
  | Electrostatic energy          :        -862.49755702 Ha      -23469.75265426 eV
  | Energy correction for multipole
  | error in Hartree potential    :          -0.00860117 Ha          -0.23404979 eV
  | Sum of eigenvalues per atom                           :        -360.73268897 eV
  | Total energy (T->0) per atom                          :        -658.59578697 eV  <-- do not rely on this value for anything but (periodic) metals
  | Electronic free energy per atom                       :        -658.59593544 eV

  Self-consistency convergence accuracy:
  | Change of charge density      : 0.3339E-01
  | Change of sum of eigenvalues  : 0.3727E+01 eV
  | Change of total energy        : 0.9156E-02 eV

  End self-consistency iteration #     5       :  max(cpu_time)    wall_clock(cpu1)
  | Time for this iteration                    :        3.365 s           3.365 s
  | Charge density update                      :        1.085 s           1.084 s
  | Density mixing                             :        0.012 s           0.012 s
  | Hartree multipole update                   :        0.006 s           0.007 s
  | Hartree multipole summation                :        0.511 s           0.511 s
  | Integration                                :        1.661 s           1.660 s
  | Solution of K.-S. eqns.                    :        0.091 s           0.091 s
  | Total energy evaluation                    :        0.000 s           0.000 s
------------------------------------------------------------

------------------------------------------------------------
          Begin self-consistency iteration #    6

  Date     :  20150727, Time     :  115302.925
------------------------------------------------------------
  Evaluating new KS density.
  Integration grid: deviation in total charge (<rho> - N_e) =  -4.106411E-09
  Pulay mixing of updated and previous charge densities.

  Evaluating partitioned Hartree potential by multipole expansion.
  | Analytical far-field extrapolation by fixed multipoles:
  | Hartree multipole sum: apparent total charge =  -0.435122E-05
  Summing up the Hartree potential.
  Time summed over all CPUs for potential: real work        4.066 s, elapsed        4.080 s
  | RMS charge density error from multipole expansion :   0.201197E-01

  Integrating Hamiltonian matrix: batch-based integration.
  Time summed over all CPUs for integration: real work       12.795 s, elapsed       13.142 s

  Updating Kohn-Sham eigenvalues, eigenvectors, occupation numbers, and Fermi level.
  Solving generalized eigenproblem
  Updating Kohn-Sham eigenvalues and eigenfunctions.
  Solving real generalised eigenvalue problem by standard LAPACK (fast)
  Determining occupation numbers for Kohn-Sham eigenstates.
  | Chemical potential (Fermi level) in eV                 : -.17436112E+01
  | Error in electron count due to remaining E_F inaccuracy: -.47641890E-10
  | Maximum occupation number of highest empty state:  0.00E+00

  Highest occupied state (VBM) at     -7.29771448 eV
  | Occupation number:      2.00000000

  Lowest unoccupied state (CBM) at    -1.74361123 eV
  | Occupation number:      1.00000000

  Overall HOMO-LUMO gap:      5.55410325 eV.

  Total energy components:
  | Sum of eigenvalues            :        -251.87692557 Ha       -6853.91986837 eV
  | XC energy correction          :         -56.27889133 Ha       -1531.42655108 eV
  | XC potential correction       :          71.95179563 Ha        1957.90797646 eV
  | Free-atom electrostatic energy:        -214.00142540 Ha       -5823.27507023 eV
  | Hartree energy correction     :          -9.65054086 Ha        -262.60457787 eV
  | van der Waals energy corr.    :           0.00000000 Ha           0.00000000 eV
  | Entropy correction            :          -0.00010367 Ha          -0.00282095 eV
  | ---------------------------
  | Total energy                  :        -459.85598752 Ha      -12513.31809108 eV
  | Total energy, T -> 0          :        -459.85609119 Ha      -12513.32091203 eV  <-- do not rely on this value for anything but (periodic) metals
  | Electronic free energy        :        -459.85619486 Ha      -12513.32373298 eV

  Derived energy quantities:
  | Kinetic energy                :         458.88592206 Ha       12486.92126685 eV
  | Electrostatic energy          :        -862.46301826 Ha      -23468.81280685 eV
  | Energy correction for multipole
  | error in Hartree potential    :          -0.00893526 Ha          -0.24314078 eV
  | Sum of eigenvalues per atom                           :        -360.73262465 eV
  | Total energy (T->0) per atom                          :        -658.59583748 eV  <-- do not rely on this value for anything but (periodic) metals
  | Electronic free energy per atom                       :        -658.59598595 eV

  Self-consistency convergence accuracy:
  | Change of charge density      : 0.8059E-02
  | Change of sum of eigenvalues  : 0.1222E-02 eV
  | Change of total energy        : -.9596E-03 eV

  End self-consistency iteration #     6       :  max(cpu_time)    wall_clock(cpu1)
  | Time for this iteration                    :        3.350 s           3.351 s
  | Charge density update                      :        1.083 s           1.082 s
  | Density mixing                             :        0.013 s           0.014 s
  | Hartree multipole update                   :        0.007 s           0.007 s
  | Hartree multipole summation                :        0.511 s           0.510 s
  | Integration                                :        1.645 s           1.645 s
  | Solution of K.-S. eqns.                    :        0.091 s           0.090 s
  | Total energy evaluation                    :        0.000 s           0.000 s
------------------------------------------------------------

------------------------------------------------------------
          Begin self-consistency iteration #    7

  Date     :  20150727, Time     :  115306.276
------------------------------------------------------------
  Evaluating new KS density.
  Integration grid: deviation in total charge (<rho> - N_e) =  -4.765610E-11
  Pulay mixing of updated and previous charge densities.

  Evaluating partitioned Hartree potential by multipole expansion.
  | Analytical far-field extrapolation by fixed multipoles:
  | Hartree multipole sum: apparent total charge =  -0.439924E-05
  Summing up the Hartree potential.
  Time summed over all CPUs for potential: real work        4.066 s, elapsed        4.081 s
  | RMS charge density error from multipole expansion :   0.201533E-01

  Integrating Hamiltonian matrix: batch-based integration.
  Time summed over all CPUs for integration: real work       12.799 s, elapsed       13.139 s

  Updating Kohn-Sham eigenvalues, eigenvectors, occupation numbers, and Fermi level.
  Solving generalized eigenproblem
  Updating Kohn-Sham eigenvalues and eigenfunctions.
  Solving real generalised eigenvalue problem by standard LAPACK (fast)
  Determining occupation numbers for Kohn-Sham eigenstates.
  | Chemical potential (Fermi level) in eV                 : -.17581639E+01
  | Error in electron count due to remaining E_F inaccuracy: 0.00000000E+00
  | Maximum occupation number of highest empty state:  0.00E+00

  Highest occupied state (VBM) at     -1.75816390 eV
  | Occupation number:      1.00000000

  Lowest unoccupied state (CBM) at    -1.75816390 eV
  | Occupation number:      1.00000000

  Overall HOMO-LUMO gap:      0.00000000 eV.

  Total energy components:
  | Sum of eigenvalues            :        -251.92663149 Ha       -6855.27243524 eV
  | XC energy correction          :         -56.27412339 Ha       -1531.29680893 eV
  | XC potential correction       :          71.94537048 Ha        1957.73313907 eV
  | Free-atom electrostatic energy:        -214.00142540 Ha       -5823.27507023 eV
  | Hartree energy correction     :          -9.59916239 Ha        -261.20649860 eV
  | van der Waals energy corr.    :           0.00000000 Ha           0.00000000 eV
  | Entropy correction            :          -0.00010367 Ha          -0.00282095 eV
  | ---------------------------
  | Total energy                  :        -459.85597219 Ha      -12513.31767394 eV
  | Total energy, T -> 0          :        -459.85607586 Ha      -12513.32049488 eV  <-- do not rely on this value for anything but (periodic) metals
  | Electronic free energy        :        -459.85617953 Ha      -12513.32331583 eV

  Derived energy quantities:
  | Kinetic energy                :         458.92290755 Ha       12487.92769328 eV
  | Electrostatic energy          :        -862.50475636 Ha      -23469.94855828 eV
  | Energy correction for multipole
  | error in Hartree potential    :          -0.00921635 Ha          -0.25078954 eV
  | Sum of eigenvalues per atom                           :        -360.80381238 eV
  | Total energy (T->0) per atom                          :        -658.59581552 eV  <-- do not rely on this value for anything but (periodic) metals
  | Electronic free energy per atom                       :        -658.59596399 eV

  Self-consistency convergence accuracy:
  | Change of charge density      : 0.6387E-02
  | Change of sum of eigenvalues  : -.1353E+01 eV
  | Change of total energy        : 0.4171E-03 eV

  End self-consistency iteration #     7       :  max(cpu_time)    wall_clock(cpu1)
  | Time for this iteration                    :        3.354 s           3.354 s
  | Charge density update                      :        1.084 s           1.084 s
  | Density mixing                             :        0.016 s           0.015 s
  | Hartree multipole update                   :        0.006 s           0.007 s
  | Hartree multipole summation                :        0.511 s           0.511 s
  | Integration                                :        1.645 s           1.644 s
  | Solution of K.-S. eqns.                    :        0.092 s           0.092 s
  | Total energy evaluation                    :        0.000 s           0.000 s
------------------------------------------------------------

------------------------------------------------------------
          Begin self-consistency iteration #    8

  Date     :  20150727, Time     :  115309.630
------------------------------------------------------------
  Evaluating new KS density.
  Integration grid: deviation in total charge (<rho> - N_e) =   1.421085E-14
  Pulay mixing of updated and previous charge densities.

  Evaluating partitioned Hartree potential by multipole expansion.
  | Analytical far-field extrapolation by fixed multipoles:
  | Hartree multipole sum: apparent total charge =  -0.443732E-05
  Summing up the Hartree potential.
  Time summed over all CPUs for potential: real work        4.066 s, elapsed        4.080 s
  | RMS charge density error from multipole expansion :   0.201691E-01

  Integrating Hamiltonian matrix: batch-based integration.
  Time summed over all CPUs for integration: real work       12.795 s, elapsed       13.134 s

  Updating Kohn-Sham eigenvalues, eigenvectors, occupation numbers, and Fermi level.
  Solving generalized eigenproblem
  Updating Kohn-Sham eigenvalues and eigenfunctions.
  Solving real generalised eigenvalue problem by standard LAPACK (fast)
  Determining occupation numbers for Kohn-Sham eigenstates.
  | Chemical potential (Fermi level) in eV                 : -.17666453E+01
  | Error in electron count due to remaining E_F inaccuracy: -.89528385E-12
  | Maximum occupation number of highest empty state:  0.00E+00

  Highest occupied state (VBM) at     -7.36508432 eV
  | Occupation number:      2.00000000

  Lowest unoccupied state (CBM) at    -1.76664530 eV
  | Occupation number:      1.00000000

  Overall HOMO-LUMO gap:      5.59843902 eV.

  Total energy components:
  | Sum of eigenvalues            :        -251.97203672 Ha       -6856.50797445 eV
  | XC energy correction          :         -56.27030028 Ha       -1531.19277695 eV
  | XC potential correction       :          71.94026212 Ha        1957.59413351 eV
  | Free-atom electrostatic energy:        -214.00142540 Ha       -5823.27507023 eV
  | Hartree energy correction     :          -9.55246853 Ha        -259.93589405 eV
  | van der Waals energy corr.    :           0.00000000 Ha           0.00000000 eV
  | Entropy correction            :          -0.00010367 Ha          -0.00282095 eV
  | ---------------------------
  | Total energy                  :        -459.85596882 Ha      -12513.31758216 eV
  | Total energy, T -> 0          :        -459.85607249 Ha      -12513.32040311 eV  <-- do not rely on this value for anything but (periodic) metals
  | Electronic free energy        :        -459.85617616 Ha      -12513.32322406 eV

  Derived energy quantities:
  | Kinetic energy                :         458.94056681 Ha       12488.40822611 eV
  | Electrostatic energy          :        -862.52623535 Ha      -23470.53303132 eV
  | Energy correction for multipole
  | error in Hartree potential    :          -0.00938812 Ha          -0.25546376 eV
  | Sum of eigenvalues per atom                           :        -360.86884076 eV
  | Total energy (T->0) per atom                          :        -658.59581069 eV  <-- do not rely on this value for anything but (periodic) metals
  | Electronic free energy per atom                       :        -658.59595916 eV

  Self-consistency convergence accuracy:
  | Change of charge density      : 0.2873E-02
  | Change of sum of eigenvalues  : -.1236E+01 eV
  | Change of total energy        : 0.9177E-04 eV

  End self-consistency iteration #     8       :  max(cpu_time)    wall_clock(cpu1)
  | Time for this iteration                    :        3.353 s           3.354 s
  | Charge density update                      :        1.084 s           1.084 s
  | Density mixing                             :        0.017 s           0.017 s
  | Hartree multipole update                   :        0.006 s           0.006 s
  | Hartree multipole summation                :        0.511 s           0.511 s
[...]
   Hellmann-Feynman + Multipole  : -.795903E+00 -.393825E+00 0.169444E+01
   Pulay + GGA                   : -.930212E-01 -.589536E-01 0.112736E+00
   Van der Waals               : -.269784E-02 -.211444E-02 -.242580E-02
   ----------------------------------------------------------------
   Total forces(  16)            : -.891622E+00 -.454893E+00 0.180475E+01
  atom #   17
   Hellmann-Feynman + Multipole  : -.121025E+02 -.262170E+01 0.299973E+01
   Pulay + GGA                   : 0.126058E+02 0.401135E+01 -.394731E+01
   Van der Waals               : -.179819E-02 -.518008E-02 -.349399E-02
   ----------------------------------------------------------------
   Total forces(  17)            : 0.501510E+00 0.138447E+01 -.951074E+00
  atom #   18
   Hellmann-Feynman + Multipole  : -.438843E-01 -.187666E+00 0.247360E+00
   Pulay + GGA                   : 0.809556E-01 -.342772E-01 0.225145E-01
   Van der Waals               : -.103117E-02 -.582336E-02 -.439931E-03
   ----------------------------------------------------------------
   Total forces(  18)            : 0.360401E-01 -.227767E+00 0.269435E+00
  atom #   19
   Hellmann-Feynman + Multipole  : -.720742E+00 -.127345E+01 0.584544E+00
   Pulay + GGA                   : 0.538362E-01 0.101595E+00 -.599324E-01
   Van der Waals               : 0.828237E-03 -.602676E-02 0.815880E-03
   ----------------------------------------------------------------
   Total forces(  19)            : -.666077E+00 -.117789E+01 0.525428E+00
  Timings for vdw_correction_hirshfeld (Tkatchenko-Scheffler 2009):
  | CPU time:        9.023 s, Wall clock time:        9.023 s.
  Removing unitary transformations (pure translations, rotations) from forces on atoms.
  Atomic forces before filtering:
  | Net force on center of mass :  0.123574E-02 -.867611E-02 -.130300E-01 eV/A
  | Net torque on center of mass:  0.215682E-01 0.193513E-02 -.122647E-01 eV
  Atomic forces after filtering:
  | Net force on center of mass :  0.000000E+00 -.535218E-15 0.178406E-15 eV/A
  | Net torque on center of mass:  0.132172E-14 0.217139E-14 -.377634E-15 eV
 
  Energy and forces in a compact form:
  | Total energy uncorrected      :         -0.125134561533947E+05 eV
  | Total energy corrected        :         -0.125134589743426E+05 eV  <-- do not rely on this value for anything but (periodic) metals
  | Electronic free energy        :         -0.125134617952905E+05 eV
  Total atomic forces (unitary forces cleaned) [eV/Ang]:
  |   1         -0.107189723742051E+01          0.124168852584458E+01         -0.122778258586651E+01
  |   2          0.386128793482434E+00         -0.965881207215739E+00          0.310124304537691E+00
  |   3          0.476854304327447E+00         -0.121891033647636E+00         -0.437558539757635E-01
  |   4          0.671214472385700E-02         -0.125574879419776E+00          0.490832908855739E+00
  |   5         -0.310490864051440E+00         -0.166852063037678E+01         -0.122677828575154E+01
  |   6          0.300320307235398E-01          0.117579011266647E+01          0.124458893208761E+01
  |   7          0.144413266938315E+00          0.424974930743835E+00          0.319228677088197E+00
  |   8          0.327187482374422E+00         -0.785428099018633E+00          0.243888544411512E+01
  |   9          0.121241378160050E+00          0.403694294333637E+00          0.303685336539853E+00
  |  10         -0.325396688684140E+00          0.330184187996255E+00         -0.254732666795413E+01
  |  11          0.180943496022708E+01         -0.440021080370174E+00          0.786372553376404E+00
  |  12         -0.211348972527627E+00         -0.158534329855916E+00         -0.494858253199478E+00
  |  13         -0.138913265676977E+01          0.734710335280335E+00         -0.318633709058829E+00
  |  14          0.848063504974921E+00          0.278069148208527E+00         -0.223089440961458E+01
  |  15          0.179717945167013E+00          0.150643072098703E+00          0.547184566843630E+00
  |  16         -0.891889763632592E+00         -0.453864768097463E+00          0.180528434037106E+01
  |  17          0.501159630535832E+00          0.138481321121603E+01         -0.951038891261565E+00
  |  18          0.357157093685456E-01         -0.227243230815980E+00          0.269611046296868E+00
  |  19         -0.666504967917386E+00         -0.117760855957028E+01          0.525270546570206E+00
 
  ------------------------------------ 
  Start decomposition of the XC Energy 
  ------------------------------------ 
  Hartree-Fock part   :          0.000000000 Ha              0.000000000 eV
  ------------------------------------ 
  X Energy            :        -54.273490376 Ha          -1476.856814770 eV
  C Energy GGA        :         -1.997984463 Ha            -54.367923450 eV
  Total XC Energy     :        -56.271474839 Ha          -1531.224738220 eV
  LDA X and C from self-consistent density 
  X Energy LDA        :        -48.950621771 Ha          -1332.014190522 eV
  C Energy LDA        :         -4.005269169 Ha           -108.988919380 eV
  ------------------------------------ 
  End decomposition of the XC Energy 
  ------------------------------------ 
  Performing Hirshfeld analysis of fragment charges and moments.
  ----------------------------------------------------------------------
  | Atom     1: O
  |   Hirshfeld charge        :     -0.15592795
  |   Free atom volume        :     23.95238533
  |   Hirshfeld volume        :     21.03811309
  |   Hirshfeld dipole vector :      0.00628657       0.02857911       0.02060539
  |   Hirshfeld dipole moment :      0.03578922
  |   Hirshfeld second moments:      0.08536535      -0.00677118      -0.00635350
  |                                 -0.00677118       0.05451767      -0.02352154
  |                                 -0.00635350      -0.02352154       0.06750988
  ----------------------------------------------------------------------
  | Atom     2: H
  |   Hirshfeld charge        :      0.12043074
  |   Free atom volume        :     10.44207651
  |   Hirshfeld volume        :      8.46481124
  |   Hirshfeld dipole vector :     -0.00418002       0.01506161      -0.00818164
  |   Hirshfeld dipole moment :      0.01764267
  |   Hirshfeld second moments:      0.06892816       0.02692742      -0.00421270
  |                                  0.02692742       0.04230335       0.01397109
  |                                 -0.00421270       0.01397109       0.08391047
  ----------------------------------------------------------------------
  | Atom     3: H
  |   Hirshfeld charge        :      0.10592893
  |   Free atom volume        :     10.44207651
  |   Hirshfeld volume        :      8.76109568
  |   Hirshfeld dipole vector :      0.01723152       0.00678864       0.00260176
  |   Hirshfeld dipole moment :      0.01870241
  |   Hirshfeld second moments:      0.02604725      -0.01986570      -0.00233923
  |                                 -0.01986570       0.07571041       0.00204410
  |                                 -0.00233923       0.00204410       0.07439367
  ----------------------------------------------------------------------
  | Atom     4: H
  |   Hirshfeld charge        :      0.10550218
  |   Free atom volume        :     10.44207651
  |   Hirshfeld volume        :      8.94734952
  |   Hirshfeld dipole vector :     -0.01552946      -0.00096362       0.01545828
  |   Hirshfeld dipole moment :      0.02193288
  |   Hirshfeld second moments:      0.07487526       0.00814133       0.01037244
  |                                  0.00814133       0.07338515       0.00362697
  |                                  0.01037244       0.00362697       0.01963711
  ----------------------------------------------------------------------
  | Atom     5: O
  |   Hirshfeld charge        :     -0.23488594
  |   Free atom volume        :     23.95238533
  |   Hirshfeld volume        :     22.75398334
  |   Hirshfeld dipole vector :     -0.02840465       0.01592411      -0.01530703
  |   Hirshfeld dipole moment :      0.03598204
  |   Hirshfeld second moments:      0.01085960       0.05194247      -0.01721635
  |                                  0.05194247       0.01929377       0.01415897
  |                                 -0.01721635       0.01415897       0.04045959
  ----------------------------------------------------------------------
  | Atom     6: H
  |   Hirshfeld charge        :      0.06932560
  |   Free atom volume        :     10.44207651
  |   Hirshfeld volume        :     12.69714412
  |   Hirshfeld dipole vector :      0.00842939       0.02941935      -0.00164867
  |   Hirshfeld dipole moment :      0.03064753
  |   Hirshfeld second moments:     -0.00908007       0.03374099      -0.02307562
  |                                  0.03374099      -0.01472955      -0.02383657
  |                                 -0.02307562      -0.02383657      -0.01149543
  ----------------------------------------------------------------------
  | Atom     7: H
  |   Hirshfeld charge        :      0.11669704
  |   Free atom volume        :     10.44207651
  |   Hirshfeld volume        :     11.00682925
  |   Hirshfeld dipole vector :     -0.06136939      -0.04485449       0.00203299
  |   Hirshfeld dipole moment :      0.07604117
  |   Hirshfeld second moments:      0.01691789       0.01800447       0.00093302
  |                                  0.01800447       0.03361388       0.00893682
  |                                  0.00093302       0.00893682       0.04339282
  ----------------------------------------------------------------------
  | Atom     8: O
  |   Hirshfeld charge        :     -0.20716886
  |   Free atom volume        :     23.95238533
  |   Hirshfeld volume        :     21.16747851
  |   Hirshfeld dipole vector :      0.03286669       0.00274097      -0.01826480
  |   Hirshfeld dipole moment :      0.03770060
  |   Hirshfeld second moments:      0.02359647      -0.00011282       0.03079174
  |                                 -0.00011282       0.07187667       0.00325521
  |                                  0.03079174       0.00325521       0.08036640
  ----------------------------------------------------------------------
  | Atom     9: H
  |   Hirshfeld charge        :      0.10908404
  |   Free atom volume        :     10.44207651
  |   Hirshfeld volume        :      8.80670065
  |   Hirshfeld dipole vector :      0.02229727       0.03038263       0.00383309
  |   Hirshfeld dipole moment :      0.03788093
  |   Hirshfeld second moments:      0.05693289      -0.02167473       0.00378994
  |                                 -0.02167473       0.05176212      -0.02127622
  |                                  0.00378994      -0.02127622       0.06759730
  ----------------------------------------------------------------------
  | Atom    10: H
  |   Hirshfeld charge        :      0.14546369
  |   Free atom volume        :     10.44207651
  |   Hirshfeld volume        :      8.19246224
  |   Hirshfeld dipole vector :     -0.01487786       0.00897940      -0.09474827
  |   Hirshfeld dipole moment :      0.09632868
  |   Hirshfeld second moments:      0.08007167       0.00115790       0.01018244
  |                                  0.00115790       0.09900930       0.00595713
  |                                  0.01018244       0.00595713       0.07800730
  ----------------------------------------------------------------------
  | Atom    11: O
  |   Hirshfeld charge        :     -0.23290936
  |   Free atom volume        :     23.95238533
  |   Hirshfeld volume        :     22.27623199
  |   Hirshfeld dipole vector :     -0.01542510      -0.02099430       0.03374184
  |   Hirshfeld dipole moment :      0.04262870
  |   Hirshfeld second moments:      0.05466448      -0.02026969       0.00840637
  |                                 -0.02026969       0.03472023       0.03584934
  |                                  0.00840637       0.03584934      -0.00699803
  ----------------------------------------------------------------------
  | Atom    12: H
  |   Hirshfeld charge        :      0.08717331
  |   Free atom volume        :     10.44207651
  |   Hirshfeld volume        :      9.90419558
  |   Hirshfeld dipole vector :     -0.00193225       0.02408308       0.02824337
  |   Hirshfeld dipole moment :      0.03716741
  |   Hirshfeld second moments:      0.06454642      -0.00372517       0.00022921
  |                                 -0.00372517       0.03744037      -0.00360965
  |                                  0.00022921      -0.00360965       0.00896163
  ----------------------------------------------------------------------
  | Atom    13: H
  |   Hirshfeld charge        :      0.11842287
  |   Free atom volume        :     10.44207651
  |   Hirshfeld volume        :     10.34978071
  |   Hirshfeld dipole vector :      0.05580298      -0.04821838       0.00310129
  |   Hirshfeld dipole moment :      0.07381465
  |   Hirshfeld second moments:      0.04498232       0.00500725      -0.00162439
  |                                  0.00500725       0.04748297       0.01836917
  |                                 -0.00162439       0.01836917       0.03345115
  ----------------------------------------------------------------------
  | Atom    14: O
  |   Hirshfeld charge        :     -0.22917485
  |   Free atom volume        :     23.95238533
  |   Hirshfeld volume        :     22.39415451
  |   Hirshfeld dipole vector :     -0.00732568       0.00676702      -0.00404575
  |   Hirshfeld dipole moment :      0.01076226
  |   Hirshfeld second moments:      0.04858122       0.02446731      -0.00264120
  |                                  0.02446731       0.02299360       0.00849025
  |                                 -0.00264120       0.00849025       0.02863376
  ----------------------------------------------------------------------
  | Atom    15: H
  |   Hirshfeld charge        :      0.09102043
  |   Free atom volume        :     10.44207651
  |   Hirshfeld volume        :     12.61398768
  |   Hirshfeld dipole vector :      0.03698331       0.03128766      -0.00405273
  |   Hirshfeld dipole moment :      0.04861180
  |   Hirshfeld second moments:      0.00512318       0.00316813      -0.00671100
  |                                  0.00316813      -0.00637841       0.00122811
  |                                 -0.00671100       0.00122811      -0.00031880
  ----------------------------------------------------------------------
  | Atom    16: H
  |   Hirshfeld charge        :      0.06454081
  |   Free atom volume        :     10.44207651
  |   Hirshfeld volume        :     12.61242322
  |   Hirshfeld dipole vector :     -0.03475661      -0.01071042      -0.01136611
  |   Hirshfeld dipole moment :      0.03810412
  |   Hirshfeld second moments:      0.00177932       0.02585870       0.01564508
  |                                  0.02585870       0.00505349       0.01330188
  |                                  0.01564508       0.01330188      -0.03793721
  ----------------------------------------------------------------------
  | Atom    17: O
  |   Hirshfeld charge        :     -0.26802519
  |   Free atom volume        :     23.95238533
  |   Hirshfeld volume        :     22.72732362
  |   Hirshfeld dipole vector :      0.03157881      -0.01011839      -0.03103828
  |   Hirshfeld dipole moment :      0.04542001
  |   Hirshfeld second moments:      0.00656734       0.00361854       0.03188754
  |                                  0.00361854       0.04785927      -0.02429250
  |                                  0.03188754      -0.02429250      -0.02129598
  ----------------------------------------------------------------------
  | Atom    18: H
  |   Hirshfeld charge        :      0.08187274
  |   Free atom volume        :     10.44207651
  |   Hirshfeld volume        :      9.70449907
  |   Hirshfeld dipole vector :      0.04590661      -0.02434847      -0.00037482
  |   Hirshfeld dipole moment :      0.05196543
  |   Hirshfeld second moments:      0.02800887       0.01558120      -0.00082890
  |                                  0.01558120       0.06074525      -0.00189397
  |                                 -0.00082890      -0.00189397       0.03251459
  ----------------------------------------------------------------------
  | Atom    19: H
  |   Hirshfeld charge        :      0.11266366
  |   Free atom volume        :     10.44207651
  |   Hirshfeld volume        :      9.76225988
  |   Hirshfeld dipole vector :      0.02287602       0.06896081      -0.03891509
  |   Hirshfeld dipole moment :      0.08242142
  |   Hirshfeld second moments:      0.05740281      -0.00950815       0.01070775
  |                                 -0.00950815       0.05707812      -0.00165106
  |                                  0.01070775      -0.00165106       0.03798558
  ----------------------------------------------------------------------


------------------------------------------------------------------------------
  Final output of selected total energy values:

  The following output summarizes some interesting total energy values
  at the end of a run (AFTER all relaxation, molecular dynamics, etc.).

  | Total energy of the DFT / Hartree-Fock s.c.f. calculation      :         -12513.456153395 eV
  | Final zero-broadening corrected energy (caution - metals only) :         -12513.458974343 eV
  | For reference only, the value of 1 Hartree used in FHI-aims is :             27.211384500 eV

  Before relying on these values, please be sure to understand exactly which
  total energy value is referred to by a given number. Different objects may
  all carry the same name 'total energy'. Definitions:

  Total energy of the DFT / Hartree-Fock s.c.f. calculation:
  | Note that this energy does not include ANY quantities calculated after the
  | s.c.f. cycle, in particular not ANY RPA, MP2, etc. many-body perturbation terms.

  Final zero-broadening corrected energy:
  | For metallic systems only, a broadening of the occupation numbers at the Fermi
  | level can be extrapolated back to zero broadening by an electron-gas inspired
  | formula. For all systems that are not real metals, this value can be
  | meaningless and should be avoided.

------------------------------------------------------------------------------

------------------------------------------------------------
          Leaving FHI-aims.
          Date     :  20150727, Time     :  115346.589

          Computational steps:
          | Number of self-consistency cycles          :           16

          Detailed time accounting                     :  max(cpu_time)    wall_clock(cpu1)
          | Total time                                 :       64.315 s          64.356 s
          | Preparation time                           :        0.172 s           0.505 s
          | Grid partitioning                          :        0.189 s           0.188 s
          | Preloading free-atom quantities on grid    :        0.014 s           0.013 s
          | Free-atom superposition energy             :        0.099 s           0.099 s
          | Total time for integrations                :       28.896 s          28.896 s
          | Total time for solution of K.-S. equations :        1.800 s           1.798 s
          | Total time for density & force components  :       22.170 s          22.167 s
          | Total time for mixing                      :        0.260 s           0.260 s
          | Total time for Hartree multipole update    :        0.099 s           0.103 s
          | Total time for Hartree multipole sum       :        9.880 s           9.878 s
          | Total time for total energy evaluation     :        0.005 s           0.006 s
          | Total time for scaled ZORA corrections     :        0.000 s           0.000 s
          | Total time for TS (2009) vdW correction    :        0.079 s           0.080 s

          Have a nice day.
------------------------------------------------------------
