  MPI-parallelism will be employed.
------------------------------------------------------------
          Invoking FHI-aims ...
          Version 081213
          Compiled on 2013/08/29 at 17:41:06 on host generoso.

          When using FHI-aims, please cite the following reference:

          Volker Blum, Ralf Gehrke, Felix Hanke, Paula Havu,
          Ville Havu, Xinguo Ren, Karsten Reuter, and Matthias Scheffler,
          'Ab Initio Molecular Simulations with Numeric Atom-Centered Orbitals: FHI-aims',
          Computer Physics Communications 180, 2175-2196 (2009)

          For any questions about FHI-aims, please visit the aimsclub website
          with its forums and wiki. Contributions to both the forums and the
          wiki are warmly encouraged - they are for you, and everyone is welcome there.

------------------------------------------------------------

  Date     :  20150727, Time     :  122809.745
  Time zero on CPU 1             :   0.459920000000000E-01  s.
  Internal wall clock time zero  :           207232089.745  s.

  Using        8 parallel tasks.
  Task        0 on host gen59 reporting.
  Task        1 on host gen59 reporting.
  Task        2 on host gen59 reporting.
  Task        3 on host gen59 reporting.
  Task        4 on host gen59 reporting.
  Task        5 on host gen59 reporting.
  Task        6 on host gen59 reporting.
  Task        7 on host gen59 reporting.

  Performing system and environment tests:
  | Environment variable OMP_NUM_THREADS correctly set to 1.
  | Checking for scalapack...
  | No scalapack compiled in.

  Obtaining array dimensions for all initial allocations:
  
  -----------------------------------------------------------------------
  Parsing control.in (first pass over file, find array dimensions only).
  The contents of control.in will be repeated verbatim below
  unless switched off by setting 'verbatim_writeout .false.' .
  in the first line of control.in .
  -----------------------------------------------------------------------
  
  #########################################################################################
  #
  #  Volker Blum, FHI 2008 : Test run input file control.in
  #
  #########################################################################################
  #
  #  Physical model
  #
    xc                 rpbe
    spin               none
    relativistic       atomic_zora scalar
    charge             0.
   vdw_correction_hirshfeld
  #
  #  SCF convergence
  #
    occupation_type    gaussian 0.01
    mixer              pulay
      n_max_pulay        10
      charge_mix_param   0.1
    sc_accuracy_rho    5E-5
    sc_accuracy_eev    5E-3
    sc_accuracy_etot   5E-6
    sc_iter_limit      3000
  #
  #  Eigenvalue solver
  #
    KS_method          lapack
      empty_states       8
      basis_threshold    0.e-5
  #
  #  Efficiency
  #
  #   all previous settings are now default, except stratmann still
  #   undecided. Continue to handle stratmann with care, if at all.
  #
  #  partition_type stratmann
    partition_type rho_r2
  #  hartree_partition_type stratmann
  #
  #  Oprions for large clusters (100's of atoms: memory saving / better scaling)
  #
  # for periodic systems:
  #
    density_update_method orbital
    packed_matrix_format none
  #  k_grid 6 6 6
  #  output k_eigenvalue 1
  #  distributed_spline_storage .true.
  #
  #  Relaxation
  #
  #  relax_geometry   bfgs 5.e-3
    sc_accuracy_forces 5.E-4
    final_forces_cleaned .true.
  #
  #  Output options
  #
  #  output mulliken
    output Hirshfeld
  #  output dipole
  
  #harmonic_length_scale 0.001
  
  ################################################################################
  #
  #  FHI-aims code project
  #  VB, Fritz-Haber Institut, 2007
  #
  #  Suggested "safe" defaults for H atom (to be pasted into control.in file)
  #  Basis constructed for a non-relativistic H2 molecule using the
  #  PW-LDA functional.
  #
  ################################################################################
    species        H
  #     global species definitions
      nucleus             1
      cut_pot             4.0  2.0  1.0
      cut_free_atom       finite 8.0
      logarithmic         0.00010000 100.00  1.0123
      basis_dep_cutoff    1d-4  # 1d-4 is safe default - please check 5d-4 if you wish!
      radial_base         24 7.0
      radial_multiplier   2
      angular_grids       specified
        division   0.2783  110
        division   0.3822  194
        division   0.5626  302
  #      division   0.5922  434
  #      division   0.6227  590
  #      division   0.7206  770
        outer_grid  302
      l_hartree           4
  ################################################################################
  #
  #  Definition of "minimal" basis
  #
  ################################################################################
  #     valence basis states
      valence      1  s   1.
  #     ion occupancy
      ion_occ      1  s   0.5
  ################################################################################
  #
  #  Suggested additional basis functions. For production calculations,
  #  uncomment them one after another (the most important basis functions are
  #  listed first).
  #
  ################################################################################
  #  "First tier" - improvements: -1014.90 meV to -62.69 meV
       hydro 2 s 2.1
       hydro 2 p 3.5
  #  "Second tier" - improvements: -12.89 meV to -1.83 meV
       hydro 1 s 0.85
       hydro 2 p 3.7
       hydro 2 s 1.2
       hydro 3 d 7
  #  "Third tier" - improvements: -0.25 meV to -0.12 meV
  #     hydro 4 f 11.2
  #     hydro 3 p 4.8
  #     hydro 4 d 9
  #     hydro 3 s 3.2
  
  ################################################################################
  #
  #  FHI-aims code project
  #  VB, Fritz-Haber Institut, 2007
  #
  #  Suggested "safe" defaults for O atom (to be pasted into control.in file)
  #  All values have been tested for a non-relativistic, non-spinpolarized O2
  #  molecule using the PW-LDA functional. Validity for PBE is expected.
  #
  #  Constructed for dimers: 1.0 A, 1.208 A, 1.5 A, 2.0 A, 3.0 A
  #
  ################################################################################
    species        O
  #     global species definitions
      nucleus             8
      mass                15.9994
      l_hartree           4
      cut_pot             4.0  2.0  1.0
      cut_free_atom       finite 8.0
      basis_dep_cutoff    1d-4  # 1d-4 is safe default - please check 5d-4 if you wish!
      logarithmic         0.00010000 100.00  1.0123
      radial_base         36 7.0
      radial_multiplier   2
       angular_grids specified
        division   0.4087  110
        division   0.5181  194
        division   0.6184  302
  #      division   0.7315  434
  #      division   0.7934  590
  #      division   0.9656  770
  #      division   1.4041  974
  #      outer_grid 974
        outer_grid 302
  ################################################################################
  #
  #  Definition of "minimal" basis
  #
  ################################################################################
  #     valence basis states
      valence      2  s   2.
      valence      2  p   4.
  #     ion occupancy
      ion_occ      2  s   1.
      ion_occ      2  p   3.
  ################################################################################
  #
  #  Suggested additional basis functions. For production calculations,
  #  uncomment them one after another (the most important basis functions are
  #  listed first).
  #
  ################################################################################
  #  "First tier" - improvements: -699.05 meV to -159.38 meV
       hydro 2 p 1.8
       hydro 3 d 7.6
       hydro 3 s 6.4
  #  "Second tier" - improvements: -49.91 meV to -5.39 meV
       hydro 4 f 11.6
       hydro 3 p 6.2
       hydro 3 d 5.6
       hydro 5 g 17.6
       hydro 1 s 0.75
  #  "Third tier" - improvements: -2.83 meV to -0.50 meV
  #     ionic 2 p auto
  #     hydro 4 f 10.8
  #     hydro 4 d 4.7
  #     hydro 2 s 6.8
  #  "Fourth tier" - improvements: -0.40 meV to -0.12 meV
  #     hydro 3 p 5
  #     hydro 3 s 3.3
  #     hydro 5 g 15.6
  #     hydro 4 f 17.6
  #     hydro 4 d 14
  # Further basis functions - -0.08 meV and below
  #     hydro 3 s 2.1
  #     hydro 4 d 11.6
  #     hydro 3 p 16
  #     hydro 2 s 17.2
  
  
  -----------------------------------------------------------------------
  Completed first pass over input file control.in .
  -----------------------------------------------------------------------
  
  
  -----------------------------------------------------------------------
  Parsing geometry.in (first pass over file, find array dimensions only).
  The contents of geometry.in will be repeated verbatim below
  unless switched off by setting 'verbatim_writeout .false.' .
  in the first line of geometry.in .
  -----------------------------------------------------------------------
  
  atom      -4.053030000      0.065001000     -1.525160000  O
  atom      -4.566710000      0.974813000     -1.912820000  H
  atom      -3.067820000      0.330172000     -1.477310000  H
  atom      -4.370360000     -0.049164000     -0.572274000  H
  atom      -4.581760000     -0.256435000      0.939478000  O
  atom      -4.349860000      0.471090000      1.504340000  H
  atom      -5.393870000     -0.726611000      1.228070000  H
  atom      -3.818880000      2.024990000      2.187990000  O
  atom      -3.690880000      1.961360000      3.202150000  H
  atom      -4.546490000      2.751300000      2.045370000  H
  atom      -4.066610000      4.258280000     -0.900064000  O
  atom      -3.224110000      3.876870000     -0.569443000  H
  atom      -3.737450000      5.116530000     -1.322720000  H
  
  -----------------------------------------------------------------------
  Completed first pass over input file geometry.in .
  -----------------------------------------------------------------------
  
 
  Basic array size parameters: 
  | Number of species                 :        2
  | Number of atoms                   :       13
  | Max. basis fn. angular momentum   :        4
  | Max. atomic/ionic basis occupied n:        2
  | Max. number of basis fn. types    :        2
  | Max. radial fns per species/type  :        8
  | Max. logarithmic grid size        :     1301
  | Max. radial integration grid size :       73
  | Max. angular integration grid size:      302
  | Max. angular grid division number :        8
  | Radial grid for Hartree potential :     1301
  | Number of spin channels           :        1

------------------------------------------------------------
          Reading file control.in.
------------------------------------------------------------
  XC: Using RPBE gradient-corrected functionals.
  Spin treatment: No spin polarisation.
  Scalar relativistic treatment of kinetic energy: on-site free-atom approximation to ZORA.
  Charge =   0.000000E+00: Neutral system requested explicitly.
  Using non-empirical van der Waals correction (Hirshfeld partitioning):
  Occupation type: Gaussian broadening, width =   0.100000E-01 eV.
  Using pulay charge density mixing.
  Pulay mixing - number of memorized iterations:   10
  Charge density mixing - mixing parameter:     0.1000
  Convergence accuracy of self-consistent charge density: 0.5000E-04
  Convergence accuracy of sum of eigenvalues: 0.5000E-02
  Convergence accuracy of total energy: 0.5000E-05
  Maximum number of s.-c. iterations  :  3000
  Kohn-Sham eigenvalues and eigenfunctions calculated by lapack diagonalisation (D&C).
  Number of empty states per atom:        8
  Threshold for basis singularities: 0.0000E+00
  Partition function in integrals calculations: rho / r^2
 Using packed matrix format           0
  Convergence accuracy of forces: 0.5000E-03
  Cleaning forces before final output.
  Hirshfeld charge analysis will be performed.
 
  Reading configuration options for species H                   .
  | Found nuclear charge :   1.0000
  | Found cutoff potl. onset [A], width [A], scale factor :    4.00000    2.00000    1.00000
  | Found cutoff specification for free atom: Cutoff potential begins at    8.00000 A.
  | Found logarithmic grid data [bohr] : 0.1000E-03 0.1000E+03 0.1012E+01
  | Threshold for basis-dependent cutoff potential is   0.100000E-03
  | Found data for basic radial integration grid :    24 points, outermost radius =    7.000 A
  | Found multiplier for basic radial grid :   2
  | Found angular grid specification: user-specified.
  | Specified grid contains     4 separate shells.
  | Check grid settings after all constraints further below.
  | Found l_max for Hartree potential  :   4
  | Found free-atom valence shell :  1 s   1.000
  | No ionic wave fns used. Skipping ion_occ.
  | Found hydrogenic basis function :  2 s   2.100
  | Found hydrogenic basis function :  2 p   3.500
  | Found hydrogenic basis function :  1 s   0.850
  | Found hydrogenic basis function :  2 p   3.700
  | Found hydrogenic basis function :  2 s   1.200
  | Found hydrogenic basis function :  3 d   7.000
  Species H                   : Missing cutoff potential type.
  Defaulting to exp(1/x)/(1-x)^2 type cutoff potential.
  Species H : On-site basis accuracy parameter (for Gram-Schmidt orthonormalisation) not specified.
  Using default value basis_acc =  0.1000000E-03.
  Species H                   : Using default innermost maximum threshold i_radial=  2 for radial functions.
  Species H                   : Basic radial grid will be enhanced according to radial_multiplier =   2, to contain    49 grid points.
 
  Reading configuration options for species O                   .
  | Found nuclear charge :   8.0000
  | Found atomic mass :    15.9994000000000      amu
  | Found l_max for Hartree potential  :   4
  | Found cutoff potl. onset [A], width [A], scale factor :    4.00000    2.00000    1.00000
  | Found cutoff specification for free atom: Cutoff potential begins at    8.00000 A.
  | Threshold for basis-dependent cutoff potential is   0.100000E-03
  | Found logarithmic grid data [bohr] : 0.1000E-03 0.1000E+03 0.1012E+01
  | Found data for basic radial integration grid :    36 points, outermost radius =    7.000 A
  | Found multiplier for basic radial grid :   2
  | Found angular grid specification: user-specified.
  | Specified grid contains     4 separate shells.
  | Check grid settings after all constraints further below.
  | Found free-atom valence shell :  2 s   2.000
  | Found free-atom valence shell :  2 p   4.000
  | No ionic wave fns used. Skipping ion_occ.
  | No ionic wave fns used. Skipping ion_occ.
  | Found hydrogenic basis function :  2 p   1.800
  | Found hydrogenic basis function :  3 d   7.600
  | Found hydrogenic basis function :  3 s   6.400
  | Found hydrogenic basis function :  4 f  11.600
  | Found hydrogenic basis function :  3 p   6.200
  | Found hydrogenic basis function :  3 d   5.600
  | Found hydrogenic basis function :  5 g  17.600
  | Found hydrogenic basis function :  1 s   0.750
  Species O                   : Missing cutoff potential type.
  Defaulting to exp(1/x)/(1-x)^2 type cutoff potential.
  Species O : On-site basis accuracy parameter (for Gram-Schmidt orthonormalisation) not specified.
  Using default value basis_acc =  0.1000000E-03.
  Species O                   : Using default innermost maximum threshold i_radial=  2 for radial functions.
  Species O                   : Basic radial grid will be enhanced according to radial_multiplier =   2, to contain    73 grid points.
 
  Finished reading input file 'control.in'. Consistency checks are next.
 
  Target number of points in a grid batch is not set. Defaulting to  100
  Method for grid partitioning is not set. Defaulting to parallel hash+maxmin partitioning.
  Batch size limit is not set. Defaulting to    200
  By default, will store active basis functions for each batch.
  If in need of memory, prune_basis_once .false. can be used to disable this option.
  communication_type for Hartree potential was not specified.
  Defaulting to calc_hartree .
  Pulay mixer: Number of initial linear mixing iterations not set.
  Defaulting to    0 iterations.
  Work space size for distributed Hartree potential not set.
  Defaulting to   0.200000E+03 MB.
  Algorithm-dependent basis array size parameters:
  | n_max_pulay                         :       10
  Geometry relaxation not requested: no relaxation will be performed.
  Handling of forces: Unphysical translation and rotation will be removed from forces.
  No accuracy limit for integral partition fn. given. Defaulting to 0.1000E-14.
  No threshold value for u(r) in integrations given. Defaulting to 0.1000E-05.
  No accuracy for occupation numbers given. Defaulting to 0.1000E-07.
  No threshold value for occupation numbers given. Defaulting to 0.0000E+00.
  No accuracy for fermi level given. Defaulting to 0.1000E-19.
  Maximum # of iterations to find E_F not set. Defaulting to  200.
  Will not use alltoall communication since running on < 1024 CPUs.
  Partitioning for Hartree potential was not defined. Using partition_type for integrals.
  | Reporting present value of keyword multip_moments_threshold  :       0.10000000E-09
  | This value may affect high angular momentum components of the Hartree potential in periodic systems.
  No q(lm)/r^(l+1) cutoff set for long-range Hartree potential.
  | Using default value of  0.100000E-09 .
  | Verify using the multipole_threshold keyword.
  Defaulting to new monopole extrapolation.
  Density update method: Loop over occupied states selected for charge density update.
------------------------------------------------------------


------------------------------------------------------------
          Reading geometry description geometry.in.
------------------------------------------------------------
  Input structure read successfully.
  The structure contains       13 atoms,  and a total of         41.000 electrons.

  Input geometry:
  | No unit cell requested.
  | Atomic structure:
  |       Atom                x [A]            y [A]            z [A]
  |    1: Species O             -4.053030         0.065001        -1.525160
  |    2: Species H             -4.566710         0.974813        -1.912820
  |    3: Species H             -3.067820         0.330172        -1.477310
  |    4: Species H             -4.370360        -0.049164        -0.572274
  |    5: Species O             -4.581760        -0.256435         0.939478
  |    6: Species H             -4.349860         0.471090         1.504340
  |    7: Species H             -5.393870        -0.726611         1.228070
  |    8: Species O             -3.818880         2.024990         2.187990
  |    9: Species H             -3.690880         1.961360         3.202150
  |   10: Species H             -4.546490         2.751300         2.045370
  |   11: Species O             -4.066610         4.258280        -0.900064
  |   12: Species H             -3.224110         3.876870        -0.569443
  |   13: Species H             -3.737450         5.116530        -1.322720
  |

  | The smallest distance between any two atoms is         0.94981015 AA.
  |
  | The first atom of this pair is atom number                      5 .
  | The second atom of this pair is atom number                     6 .

  Structure-dependent array size parameters: 
  | Maximum number of distinct radial functions  :       18
  | Maximum number of basis functions            :      291
  | Number of Kohn-Sham states (occupied + empty):       73
------------------------------------------------------------

------------------------------------------------------------
          Preparing all fixed parts of the calculation.
------------------------------------------------------------
  Determining machine precision:
    2.225073858507201E-308
  Setting up grids for atomic and cluster calculations.

  Creating wave function, potential, and density for free atoms.

  Species: H

  List of occupied orbitals and eigenvalues:
    n    l              occ      energy [Ha]    energy [eV]
    1    0           1.0000        -0.241408        -6.5691


  Species: O

  List of occupied orbitals and eigenvalues:
    n    l              occ      energy [Ha]    energy [eV]
    1    0           2.0000       -18.944147      -515.4965
    2    0           2.0000        -0.883529       -24.0421
    2    1           4.0000        -0.330176        -8.9845

  Creating fixed part of basis set: Ionic, confined, hydrogenic.
 
  H                    hydrogenic:
 
  List of hydrogenic basis orbitals: 
    n    l      effective z      eigenvalue [eV]  inner max. [A]     outer max. [A]     outer radius [A]   
    2    0         2.100000       -14.9965           0.193241           1.317192           5.372934
    2    1         3.500000       -41.6672           0.602363           0.602363           4.056010
    1    0         0.850000        -9.8292           0.624864           0.624864           5.372934
    2    1         3.700000       -46.5653           0.573616           0.573616           3.909951
    2    0         1.200000        -4.5995           0.334977           2.228160           5.505921
    3    2         7.000000       -74.0753           0.680692           0.680692           3.769152
 
 
  O                    hydrogenic:
 
  List of hydrogenic basis orbitals: 
    n    l      effective z      eigenvalue [eV]  inner max. [A]     outer max. [A]     outer radius [A]   
    2    1         1.800000       -11.0118           1.178546           1.178546           5.432516
    3    2         7.600000       -87.3182           0.624117           0.624117           3.541422
    3    0         6.400000       -61.9209           0.061166           1.081887           4.306510
    4    3        11.600000      -114.4238           0.731621           0.731621           3.584982
    3    1         6.200000       -58.1113           0.255677           1.030255           4.306510
    3    2         5.600000       -47.4081           0.847222           0.847222           4.413102
    5    4        17.600000      -168.5799           0.749730           0.749730           3.372413
    1    0         0.750000        -7.6499           0.705275           0.705275           5.366508
 

  Adding cutoff potential to free-atom effective potential.
  Creating atomic-like basis functions for current effective potential.

  Species H                   :

  List of atomic basis orbitals and eigenvalues:
    n    l      energy [Ha]    energy [eV]    outer radius [A]
    1    0        -0.241374        -6.5681       5.372934


  Species O                   :

  List of atomic basis orbitals and eigenvalues:
    n    l      energy [Ha]    energy [eV]    outer radius [A]
    1    0       -18.944147      -515.4965       1.415745
    2    0        -0.883529       -24.0421       5.048305
    2    1        -0.330173        -8.9845       5.301302

  Assembling full basis from fixed parts.
  | Species H :   atomic orbital   1 s accepted.
  | Species H :    hydro orbital   2 s accepted.
  | Species H :    hydro orbital   1 s accepted.
  | Species H :    hydro orbital   2 s accepted.
  | Species H :    hydro orbital   2 p accepted.
  | Species H :    hydro orbital   2 p accepted.
  | Species H :    hydro orbital   3 d accepted.
  | Species O :   atomic orbital   1 s accepted.
  | Species O :    hydro orbital   3 s accepted.
  | Species O :   atomic orbital   2 s accepted.
  | Species O :    hydro orbital   1 s accepted.
  | Species O :    hydro orbital   3 p accepted.
  | Species O :   atomic orbital   2 p accepted.
  | Species O :    hydro orbital   2 p accepted.
  | Species O :    hydro orbital   3 d accepted.
  | Species O :    hydro orbital   3 d accepted.
  | Species O :    hydro orbital   4 f accepted.
  | Species O :    hydro orbital   5 g accepted.
 
  Basis size parameters after reduction:
  | Total number of radial functions:       18
  | Total number of basis functions :      291
 
  Testing on-site integration grid accuracy.
  |  Species  Function  <phi|h_atom|phi> (log., in eV)  <phi|h_atom|phi> (rad., in eV)
           1        1                 -6.5683835025                 -6.5684759159
           1        2                 13.3711789951                 13.3708738703
           1        3                 23.6590910787                 23.6532055418
           1        4                 16.2963827186                 16.1870710655 ***
           1        5                 28.7627214838                 28.7627215090
           1        6                 59.5965249172                 59.5965950857
           1        7                 60.2220506392                 60.2220503827
           2        8               -515.4964576505               -515.4964530710
           2        9                 15.3030791347                 15.3030722972
           2       10                -21.7296094581                -21.7296135470
           2       11                 14.2969371730                 14.2969701621
           2       12                 21.0679693190                 21.0679697493
           2       13                 -2.3833606469                 -2.3833613176
           2       14                 13.7067136422                 13.7066766629
           2       15                 45.8013116808                 45.8013116965
           2       16                 52.2309815402                 52.2309831494
           2       17                 85.4120732416                 85.4120732763
           2       18                142.1019167745                142.1019167817
 * Note: Onsite integrals marked "***" above are less accurate than
 * onsite_accuracy_threshold =    0.03000 eV. Usually, this is harmless.
 * When in doubt, tighten the "radial" and/or "radial_multiplier" flags to check.

  Preparing densities etc. for the partition functions (integrals / Hartree potential).

  Preparations completed.
  max(cpu_time)          :      0.173 s.
  Wall clock time (cpu1) :      0.563 s.
------------------------------------------------------------

------------------------------------------------------------
          Begin self-consistency loop: Initialization.

          Date     :  20150727, Time     :  122810.363
------------------------------------------------------------

  Initializing index lists of integration centers etc. from given atomic structure:
  | Number of centers in hartree potential         :        13
  | Number of centers in hartree multipole         :        13
  | Number of centers in electron density summation:        13
  | Number of centers in basis integrals           :        13
  | Number of centers in integrals                 :        13
  Partitioning the integration grid into batches with parallel hashing+maxmin method.
  | Number of batches:     1683
  | Maximal batch size:     183
  | Minimal batch size:      49
  | Average batch size:     100.393
  | Standard deviation of batch sizes:      25.654

  Integration load balanced across     8 MPI tasks.
  Work distribution over tasks is as follows:
  Task     0 has      21068 integration points.
  Task     1 has      21076 integration points.
  Task     2 has      21166 integration points.
  Task     3 has      21158 integration points.
  Task     4 has      21071 integration points.
  Task     5 has      21160 integration points.
  Task     6 has      21132 integration points.
  Task     7 has      21131 integration points.
  Initializing partition tables, free-atom densities, potentials, etc. across the integration grid (initialize_grid_storage).
  | Net number of integration points:   168962
  | of which are non-zero points    :   168429
  Obtaining max. number of non-zero basis functions in each batch (get_n_compute_maxes).
  | Maximal number of non-zero basis functions:      288 in task     0
  | Maximal number of non-zero basis functions:      289 in task     1
  | Maximal number of non-zero basis functions:      288 in task     2
  | Maximal number of non-zero basis functions:      288 in task     3
  | Maximal number of non-zero basis functions:      288 in task     4
  | Maximal number of non-zero basis functions:      289 in task     5
  | Maximal number of non-zero basis functions:      288 in task     6
  | Maximal number of non-zero basis functions:      288 in task     7
  Integrating Hamiltonian matrix: batch-based integration.
  Time summed over all CPUs for integration: real work        5.000 s, elapsed        5.176 s
  Integrating overlap matrix.
  Time summed over all CPUs for integration: real work        2.638 s, elapsed        2.705 s

  Updating Kohn-Sham eigenvalues, eigenvectors, occupation numbers, and Fermi level.
  Solving generalized eigenproblem
  Updating Kohn-Sham eigenvalues and eigenfunctions.
  Transforming overlap matrix and checking for singularities.
  Overlap matrix is nonsingular:
  | Lowest eigenvalue:  0.251514E-03
  Solving real generalised eigenvalue problem by standard LAPACK (fast)
  Determining occupation numbers for Kohn-Sham eigenstates.
  | Chemical potential (Fermi level) in eV                 : -.28977467E+01
  | Error in electron count due to remaining E_F inaccuracy: 0.00000000E+00
  | Maximum occupation number of highest empty state:  0.00E+00

  Writing Kohn-Sham eigenvalues.

  State    Occupation    Eigenvalue [Ha]    Eigenvalue [eV]
      1       2.00000         -19.064908         -518.78255
      2       2.00000         -19.059272         -518.62917
      3       2.00000         -19.040024         -518.10541
      4       2.00000         -19.032056         -517.88859
      5       2.00000          -1.124832          -30.60822
      6       2.00000          -1.104612          -30.05802
      7       2.00000          -1.083041          -29.47105
      8       2.00000          -1.064463          -28.96552
      9       2.00000          -0.654910          -17.82101
     10       2.00000          -0.639716          -17.40756
     11       2.00000          -0.603369          -16.41851
     12       2.00000          -0.602243          -16.38787
     13       2.00000          -0.593793          -16.15794
     14       2.00000          -0.517887          -14.09242
     15       2.00000          -0.504855          -13.73780
     16       2.00000          -0.494656          -13.46026
     17       2.00000          -0.483956          -13.16910
     18       2.00000          -0.446555          -12.15138
     19       2.00000          -0.427064          -11.62101
     20       2.00000          -0.424898          -11.56205
     21       1.00000          -0.106490           -2.89775
     22       0.00000          -0.079337           -2.15888
     23       0.00000          -0.064502           -1.75519
     24       0.00000          -0.042380           -1.15323
     25       0.00000          -0.034428           -0.93684
     26       0.00000          -0.013708           -0.37301
     27       0.00000           0.000384            0.01046
     28       0.00000           0.042352            1.15247
     29       0.00000           0.048998            1.33330
     30       0.00000           0.066009            1.79619
     31       0.00000           0.070713            1.92420
     32       0.00000           0.090762            2.46977
     33       0.00000           0.095922            2.61017
     34       0.00000           0.098427            2.67834
     35       0.00000           0.101805            2.77024
     36       0.00000           0.113604            3.09133
     37       0.00000           0.126574            3.44426
     38       0.00000           0.134919            3.67133
     39       0.00000           0.139957            3.80843
     40       0.00000           0.146714            3.99230
     41       0.00000           0.160103            4.35662
     42       0.00000           0.177660            4.83437
     43       0.00000           0.192587            5.24055
     44       0.00000           0.213930            5.82133
     45       0.00000           0.225859            6.14595
     46       0.00000           0.234154            6.37167
     47       0.00000           0.254277            6.91923
     48       0.00000           0.267587            7.28142
     49       0.00000           0.277309            7.54597
     50       0.00000           0.315792            8.59314
     51       0.00000           0.329240            8.95909
     52       0.00000           0.349113            9.49985
     53       0.00000           0.357662            9.73248
     54       0.00000           0.368341           10.02306
     55       0.00000           0.377543           10.27346
     56       0.00000           0.385156           10.48064
     57       0.00000           0.394629           10.73841
     58       0.00000           0.413057           11.23985
     59       0.00000           0.422289           11.49107
     60       0.00000           0.429173           11.67839
     61       0.00000           0.450613           12.26180
     62       0.00000           0.462520           12.58582
     63       0.00000           0.477745           13.00011
     64       0.00000           0.501751           13.65334
     65       0.00000           0.525343           14.29531
     66       0.00000           0.546820           14.87972
     67       0.00000           0.566961           15.42779
     68       0.00000           0.575863           15.67003
     69       0.00000           0.627408           17.07263
     70       0.00000           0.686285           18.67477
     71       0.00000           0.696580           18.95492
     72       0.00000           0.733372           19.95607
     73       0.00000           0.741128           20.16712

  Highest occupied state (VBM) at     -2.89774675 eV
  | Occupation number:      1.00000000

  Lowest unoccupied state (CBM) at    -2.89774675 eV
  | Occupation number:      1.00000000

  Overall HOMO-LUMO gap:      0.00000000 eV.
  Calculating total energy contributions from superposition of free atom densities.

  Total energy components:
  | Sum of eigenvalues            :        -174.04070965 Ha       -4735.88866889 eV
  | XC energy correction          :         -36.78121405 Ha       -1000.86775782 eV
  | XC potential correction       :          47.00318775 Ha        1279.02181450 eV
  | Free-atom electrostatic energy:        -143.09182087 Ha       -3893.72655644 eV
  | Hartree energy correction     :           0.00000000 Ha           0.00000000 eV
  | van der Waals energy corr.    :           0.00000000 Ha           0.00000000 eV
  | Entropy correction            :          -0.00010367 Ha          -0.00282095 eV
  | ---------------------------
  | Total energy                  :        -306.91055682 Ha       -8351.46116865 eV
  | Total energy, T -> 0          :        -306.91066048 Ha       -8351.46398959 eV  <-- do not rely on this value for anything but (periodic) metals
  | Electronic free energy        :        -306.91076415 Ha       -8351.46681054 eV

  Derived energy quantities:
  | Kinetic energy                :         303.95280724 Ha        8270.97670763 eV
  | Electrostatic energy          :        -574.08215001 Ha      -15621.57011846 eV
  | Energy correction for multipole
  | error in Hartree potential    :           0.00000000 Ha           0.00000000 eV
  | Sum of eigenvalues per atom                           :        -364.29912838 eV
  | Total energy (T->0) per atom                          :        -642.42030689 eV  <-- do not rely on this value for anything but (periodic) metals
  | Electronic free energy per atom                       :        -642.42052389 eV
  Initialize hartree_potential_storage
  Max. number of atoms included in rho_multipole:           13

  End scf initialization - timings             :  max(cpu_time)    wall_clock(cpu1)
  | Time for scf. initialization               :        1.398 s           1.398 s
  | Boundary condition initialization          :        0.000 s           0.000 s
  | Integration                                :        0.989 s           0.988 s
  | Solution of K.-S. eqns.                    :        0.135 s           0.136 s
  | Grid partitioning                          :        0.108 s           0.107 s
  | Preloading free-atom quantities on grid    :        0.013 s           0.014 s
  | Free-atom superposition energy             :        0.052 s           0.051 s
  | Total energy evaluation                    :        0.000 s           0.001 s
------------------------------------------------------------

------------------------------------------------------------
          Begin self-consistency iteration #    1

  Date     :  20150727, Time     :  122811.761
------------------------------------------------------------
  Evaluating new KS density.
  Integration grid: deviation in total charge (<rho> - N_e) =   1.421085E-14
  Pulay mixing of updated and previous charge densities.

  Evaluating partitioned Hartree potential by multipole expansion.
  | Analytical far-field extrapolation by fixed multipoles:
  | Hartree multipole sum: apparent total charge =  -0.906297E-06
  Summing up the Hartree potential.
  Time summed over all CPUs for potential: real work        1.919 s, elapsed        1.928 s
  | RMS charge density error from multipole expansion :   0.145967E-02

  Integrating Hamiltonian matrix: batch-based integration.
  Time summed over all CPUs for integration: real work        4.974 s, elapsed        5.157 s

  Updating Kohn-Sham eigenvalues, eigenvectors, occupation numbers, and Fermi level.
  Solving generalized eigenproblem
  Updating Kohn-Sham eigenvalues and eigenfunctions.
  Solving real generalised eigenvalue problem by standard LAPACK (fast)
  Determining occupation numbers for Kohn-Sham eigenstates.
  | Chemical potential (Fermi level) in eV                 : -.26925811E+01
  | Error in electron count due to remaining E_F inaccuracy: -.85265128E-13
  | Maximum occupation number of highest empty state:  0.00E+00

  Writing Kohn-Sham eigenvalues.

  State    Occupation    Eigenvalue [Ha]    Eigenvalue [eV]
      1       2.00000         -19.011481         -517.32873
      2       2.00000         -18.984472         -516.59378
      3       2.00000         -18.962324         -515.99109
      4       2.00000         -18.960188         -515.93297
      5       2.00000          -1.097778          -29.87206
      6       2.00000          -1.069430          -29.10067
      7       2.00000          -1.042316          -28.36287
      8       2.00000          -1.029941          -28.02611
      9       2.00000          -0.623201          -16.95817
     10       2.00000          -0.616281          -16.76986
     11       2.00000          -0.580868          -15.80623
     12       2.00000          -0.568619          -15.47291
     13       2.00000          -0.564779          -15.36842
     14       2.00000          -0.485560          -13.21275
     15       2.00000          -0.464360          -12.63588
     16       2.00000          -0.462356          -12.58135
     17       2.00000          -0.453053          -12.32821
     18       2.00000          -0.409029          -11.13025
     19       2.00000          -0.388825          -10.58047
     20       2.00000          -0.384261          -10.45626
     21       1.00000          -0.098951           -2.69258
     22       0.00000          -0.071781           -1.95326
     23       0.00000          -0.055994           -1.52368
     24       0.00000          -0.034907           -0.94987
     25       0.00000          -0.028279           -0.76951
     26       0.00000          -0.005806           -0.15799
     27       0.00000           0.009551            0.25989
     28       0.00000           0.048341            1.31543
     29       0.00000           0.053768            1.46311
     30       0.00000           0.072588            1.97522
     31       0.00000           0.076263            2.07523
     32       0.00000           0.097711            2.65885
     33       0.00000           0.101729            2.76820
     34       0.00000           0.105269            2.86451
     35       0.00000           0.111540            3.03517
     36       0.00000           0.120279            3.27295
     37       0.00000           0.134680            3.66482
     38       0.00000           0.144446            3.93058
     39       0.00000           0.151649            4.12659
     40       0.00000           0.158172            4.30409
     41       0.00000           0.171128            4.65663
     42       0.00000           0.186231            5.06759
     43       0.00000           0.200422            5.45376
     44       0.00000           0.220324            5.99533
     45       0.00000           0.234044            6.36866
     46       0.00000           0.240513            6.54469
     47       0.00000           0.260818            7.09721
     48       0.00000           0.275179            7.48800
     49       0.00000           0.283000            7.70083
     50       0.00000           0.323346            8.79871
     51       0.00000           0.335689            9.13456
     52       0.00000           0.357070            9.71637
     53       0.00000           0.364543            9.91972
     54       0.00000           0.376102           10.23426
     55       0.00000           0.385268           10.48368
     56       0.00000           0.392609           10.68345
     57       0.00000           0.402427           10.95060
     58       0.00000           0.420464           11.44140
     59       0.00000           0.429660           11.69163
     60       0.00000           0.436429           11.87583
     61       0.00000           0.457775           12.45668
     62       0.00000           0.472042           12.84491
     63       0.00000           0.485989           13.22443
     64       0.00000           0.513002           13.95950
     65       0.00000           0.535071           14.56004
     66       0.00000           0.556970           15.15592
     67       0.00000           0.576053           15.67520
     68       0.00000           0.586652           15.96363
     69       0.00000           0.637678           17.35211
     70       0.00000           0.694933           18.91009
     71       0.00000           0.707176           19.24324
     72       0.00000           0.744749           20.26564
     73       0.00000           0.752349           20.47247

  Highest occupied state (VBM) at    -10.45626127 eV
  | Occupation number:      2.00000000

  Lowest unoccupied state (CBM) at    -2.69258111 eV
  | Occupation number:      1.00000000

  Overall HOMO-LUMO gap:      7.76368016 eV.

  Total energy components:
  | Sum of eigenvalues            :        -172.41719691 Ha       -4691.71063942 eV
  | XC energy correction          :         -36.95514377 Ha       -1005.60062646 eV
  | XC potential correction       :          47.23060457 Ha        1285.21014105 eV
  | Free-atom electrostatic energy:        -143.09182087 Ha       -3893.72655644 eV
  | Hartree energy correction     :          -1.58114028 Ha         -43.02501617 eV
  | van der Waals energy corr.    :           0.00000000 Ha           0.00000000 eV
  | Entropy correction            :          -0.00010367 Ha          -0.00282095 eV
  | ---------------------------
  | Total energy                  :        -306.81469726 Ha       -8348.85269744 eV
  | Total energy, T -> 0          :        -306.81480093 Ha       -8348.85551838 eV  <-- do not rely on this value for anything but (periodic) metals
  | Electronic free energy        :        -306.81490460 Ha       -8348.85833933 eV

  Derived energy quantities:
  | Kinetic energy                :         305.00866194 Ha        8299.70797601 eV
  | Electrostatic energy          :        -574.86821543 Ha      -15642.96004699 eV
  | Energy correction for multipole
  | error in Hartree potential    :           0.00036431 Ha           0.00991326 eV
  | Sum of eigenvalues per atom                           :        -360.90081842 eV
  | Total energy (T->0) per atom                          :        -642.21965526 eV  <-- do not rely on this value for anything but (periodic) metals
  | Electronic free energy per atom                       :        -642.21987226 eV

  Self-consistency convergence accuracy:
  | Change of charge density      : 0.5619E+00
  | Change of sum of eigenvalues  : 0.4418E+02 eV
  | Change of total energy        : 0.2608E+01 eV

  End self-consistency iteration #     1       :  max(cpu_time)    wall_clock(cpu1)
  | Time for this iteration                    :        1.392 s           1.392 s
  | Charge density update                      :        0.460 s           0.460 s
  | Density mixing                             :        0.003 s           0.003 s
  | Hartree multipole update                   :        0.005 s           0.004 s
  | Hartree multipole summation                :        0.241 s           0.242 s
  | Integration                                :        0.646 s           0.646 s
  | Solution of K.-S. eqns.                    :        0.035 s           0.036 s
  | Total energy evaluation                    :        0.000 s           0.000 s
------------------------------------------------------------

------------------------------------------------------------
          Begin self-consistency iteration #    2

  Date     :  20150727, Time     :  122813.153
------------------------------------------------------------
  Evaluating new KS density.
  Integration grid: deviation in total charge (<rho> - N_e) =  -6.394885E-14
  Pulay mixing of updated and previous charge densities.

  Evaluating partitioned Hartree potential by multipole expansion.
  | Analytical far-field extrapolation by fixed multipoles:
  | Hartree multipole sum: apparent total charge =  -0.307612E-05
  Summing up the Hartree potential.
  Time summed over all CPUs for potential: real work        1.918 s, elapsed        1.928 s
  | RMS charge density error from multipole expansion :   0.583856E-02

  Integrating Hamiltonian matrix: batch-based integration.
  Time summed over all CPUs for integration: real work        4.960 s, elapsed        5.150 s

  Updating Kohn-Sham eigenvalues, eigenvectors, occupation numbers, and Fermi level.
  Solving generalized eigenproblem
  Updating Kohn-Sham eigenvalues and eigenfunctions.
  Solving real generalised eigenvalue problem by standard LAPACK (fast)
  Determining occupation numbers for Kohn-Sham eigenstates.
  | Chemical potential (Fermi level) in eV                 : -.22066012E+01
  | Error in electron count due to remaining E_F inaccuracy: 0.91456798E-09
  | Maximum occupation number of highest empty state:  0.00E+00

  Highest occupied state (VBM) at     -2.20660116 eV
  | Occupation number:      1.00000000

  Lowest unoccupied state (CBM) at    -1.47445237 eV
  | Occupation number:      0.00000000

  Overall HOMO-LUMO gap:      0.73214879 eV.

  Total energy components:
  | Sum of eigenvalues            :        -168.63413970 Ha       -4588.76841519 eV
  | XC energy correction          :         -37.38073869 Ha       -1017.18165350 eV
  | XC potential correction       :          47.78593956 Ha        1300.32157505 eV
  | Free-atom electrostatic energy:        -143.09182087 Ha       -3893.72655644 eV
  | Hartree energy correction     :          -5.38835983 Ha        -146.62473108 eV
  | van der Waals energy corr.    :           0.00000000 Ha           0.00000000 eV
  | Entropy correction            :          -0.00010367 Ha          -0.00282095 eV
  | ---------------------------
  | Total energy                  :        -306.70911953 Ha       -8345.97978117 eV
  | Total energy, T -> 0          :        -306.70922320 Ha       -8345.98260211 eV  <-- do not rely on this value for anything but (periodic) metals
  | Electronic free energy        :        -306.70932687 Ha       -8345.98542306 eV

  Derived energy quantities:
  | Kinetic energy                :         307.13906689 Ha        8357.67924416 eV
  | Electrostatic energy          :        -576.46744773 Ha      -15686.47737182 eV
  | Energy correction for multipole
  | error in Hartree potential    :           0.00073557 Ha           0.02001601 eV
  | Sum of eigenvalues per atom                           :        -352.98218578 eV
  | Total energy (T->0) per atom                          :        -641.99866170 eV  <-- do not rely on this value for anything but (periodic) metals
  | Electronic free energy per atom                       :        -641.99887870 eV

  Self-consistency convergence accuracy:
  | Change of charge density      : 0.4260E+00
  | Change of sum of eigenvalues  : 0.1029E+03 eV
  | Change of total energy        : 0.2873E+01 eV

  End self-consistency iteration #     2       :  max(cpu_time)    wall_clock(cpu1)
  | Time for this iteration                    :        1.387 s           1.388 s
  | Charge density update                      :        0.455 s           0.455 s
  | Density mixing                             :        0.004 s           0.005 s
  | Hartree multipole update                   :        0.004 s           0.004 s
  | Hartree multipole summation                :        0.242 s           0.242 s
  | Integration                                :        0.645 s           0.645 s
  | Solution of K.-S. eqns.                    :        0.036 s           0.036 s
  | Total energy evaluation                    :        0.000 s           0.001 s
------------------------------------------------------------

------------------------------------------------------------
          Begin self-consistency iteration #    3

  Date     :  20150727, Time     :  122814.541
------------------------------------------------------------
  Evaluating new KS density.
  Integration grid: deviation in total charge (<rho> - N_e) =   9.145822E-10
  Pulay mixing of updated and previous charge densities.

  Evaluating partitioned Hartree potential by multipole expansion.
  | Analytical far-field extrapolation by fixed multipoles:
  | Hartree multipole sum: apparent total charge =  -0.322027E-05
  Summing up the Hartree potential.
  Time summed over all CPUs for potential: real work        1.918 s, elapsed        1.928 s
  | RMS charge density error from multipole expansion :   0.122071E-01

  Integrating Hamiltonian matrix: batch-based integration.
  Time summed over all CPUs for integration: real work        4.965 s, elapsed        5.144 s

  Updating Kohn-Sham eigenvalues, eigenvectors, occupation numbers, and Fermi level.
  Solving generalized eigenproblem
  Updating Kohn-Sham eigenvalues and eigenfunctions.
  Solving real generalised eigenvalue problem by standard LAPACK (fast)
  Determining occupation numbers for Kohn-Sham eigenstates.
  | Chemical potential (Fermi level) in eV                 : -.21908209E+01
  | Error in electron count due to remaining E_F inaccuracy: 0.58393397E-08
  | Maximum occupation number of highest empty state:  0.00E+00

  Highest occupied state (VBM) at     -2.19082088 eV
  | Occupation number:      1.00000001

  Lowest unoccupied state (CBM) at    -1.46628441 eV
  | Occupation number:      0.00000000

  Overall HOMO-LUMO gap:      0.72453646 eV.

  Total energy components:
  | Sum of eigenvalues            :        -168.95353892 Ha       -4597.45971014 eV
  | XC energy correction          :         -37.36404929 Ha       -1016.72751167 eV
  | XC potential correction       :          47.75746857 Ha        1299.54683998 eV
  | Free-atom electrostatic energy:        -143.09182087 Ha       -3893.72655644 eV
  | Hartree energy correction     :          -5.05631147 Ha        -137.58923570 eV
  | van der Waals energy corr.    :           0.00000000 Ha           0.00000000 eV
  | Entropy correction            :          -0.00010367 Ha          -0.00282095 eV
  | ---------------------------
  | Total energy                  :        -306.70825198 Ha       -8345.95617397 eV
  | Total energy, T -> 0          :        -306.70835565 Ha       -8345.95899492 eV  <-- do not rely on this value for anything but (periodic) metals
  | Electronic free energy        :        -306.70845932 Ha       -8345.96181587 eV

  Derived energy quantities:
  | Kinetic energy                :         305.64794437 Ha        8317.10373588 eV
  | Electrostatic energy          :        -574.99214706 Ha      -15646.33239818 eV
  | Energy correction for multipole
  | error in Hartree potential    :          -0.00224862 Ha          -0.06118802 eV
  | Sum of eigenvalues per atom                           :        -353.65074693 eV
  | Total energy (T->0) per atom                          :        -641.99684576 eV  <-- do not rely on this value for anything but (periodic) metals
  | Electronic free energy per atom                       :        -641.99706276 eV

  Self-consistency convergence accuracy:
  | Change of charge density      : 0.2142E+00
  | Change of sum of eigenvalues  : -.8691E+01 eV
  | Change of total energy        : 0.2361E-01 eV

  End self-consistency iteration #     3       :  max(cpu_time)    wall_clock(cpu1)
  | Time for this iteration                    :        1.390 s           1.389 s
  | Charge density update                      :        0.456 s           0.457 s
  | Density mixing                             :        0.006 s           0.005 s
  | Hartree multipole update                   :        0.005 s           0.005 s
  | Hartree multipole summation                :        0.242 s           0.242 s
  | Integration                                :        0.644 s           0.644 s
  | Solution of K.-S. eqns.                    :        0.036 s           0.036 s
  | Total energy evaluation                    :        0.000 s           0.000 s
------------------------------------------------------------

------------------------------------------------------------
          Begin self-consistency iteration #    4

  Date     :  20150727, Time     :  122815.930
------------------------------------------------------------
  Evaluating new KS density.
  Integration grid: deviation in total charge (<rho> - N_e) =   5.839354E-09
  Pulay mixing of updated and previous charge densities.

  Evaluating partitioned Hartree potential by multipole expansion.
  | Analytical far-field extrapolation by fixed multipoles:
  | Hartree multipole sum: apparent total charge =  -0.378392E-05
  Summing up the Hartree potential.
  Time summed over all CPUs for potential: real work        1.918 s, elapsed        1.927 s
  | RMS charge density error from multipole expansion :   0.152596E-01

  Integrating Hamiltonian matrix: batch-based integration.
  Time summed over all CPUs for integration: real work        4.946 s, elapsed        5.123 s

  Updating Kohn-Sham eigenvalues, eigenvectors, occupation numbers, and Fermi level.
  Solving generalized eigenproblem
  Updating Kohn-Sham eigenvalues and eigenfunctions.
  Solving real generalised eigenvalue problem by standard LAPACK (fast)
  Determining occupation numbers for Kohn-Sham eigenstates.
  | Chemical potential (Fermi level) in eV                 : -.20596826E+01
  | Error in electron count due to remaining E_F inaccuracy: -.16282087E-09
  | Maximum occupation number of highest empty state:  0.00E+00

  Highest occupied state (VBM) at     -6.79177106 eV
  | Occupation number:      2.00000000

  Lowest unoccupied state (CBM) at    -2.05968259 eV
  | Occupation number:      1.00000000

  Overall HOMO-LUMO gap:      4.73208847 eV.

  Total energy components:
  | Sum of eigenvalues            :        -168.00172958 Ha       -4571.55966035 eV
  | XC energy correction          :         -37.48968838 Ha       -1020.14632538 eV
  | XC potential correction       :          47.91972282 Ha        1303.96200272 eV
  | Free-atom electrostatic energy:        -143.09182087 Ha       -3893.72655644 eV
  | Hartree energy correction     :          -6.03957465 Ha        -164.34518802 eV
  | van der Waals energy corr.    :           0.00000000 Ha           0.00000000 eV
  | Entropy correction            :          -0.00010367 Ha          -0.00282095 eV
  | ---------------------------
  | Total energy                  :        -306.70309067 Ha       -8345.81572748 eV
  | Total energy, T -> 0          :        -306.70319434 Ha       -8345.81854843 eV  <-- do not rely on this value for anything but (periodic) metals
  | Electronic free energy        :        -306.70329800 Ha       -8345.82136938 eV

  Derived energy quantities:
  | Kinetic energy                :         305.79287981 Ha        8321.04762984 eV
  | Electrostatic energy          :        -575.00628209 Ha      -15646.71703194 eV
  | Energy correction for multipole
  | error in Hartree potential    :          -0.00305534 Ha          -0.08314003 eV
  | Sum of eigenvalues per atom                           :        -351.65843541 eV
  | Total energy (T->0) per atom                          :        -641.98604219 eV  <-- do not rely on this value for anything but (periodic) metals
  | Electronic free energy per atom                       :        -641.98625918 eV

  Self-consistency convergence accuracy:
  | Change of charge density      : 0.1024E+00
  | Change of sum of eigenvalues  : 0.2590E+02 eV
  | Change of total energy        : 0.1404E+00 eV

  End self-consistency iteration #     4       :  max(cpu_time)    wall_clock(cpu1)
  | Time for this iteration                    :        1.388 s           1.388 s
  | Charge density update                      :        0.457 s           0.457 s
  | Density mixing                             :        0.007 s           0.007 s
  | Hartree multipole update                   :        0.004 s           0.004 s
  | Hartree multipole summation                :        0.242 s           0.242 s
  | Integration                                :        0.642 s           0.642 s
  | Solution of K.-S. eqns.                    :        0.035 s           0.035 s
  | Total energy evaluation                    :        0.000 s           0.001 s
------------------------------------------------------------

------------------------------------------------------------
          Begin self-consistency iteration #    5

  Date     :  20150727, Time     :  122817.318
------------------------------------------------------------
  Evaluating new KS density.
  Integration grid: deviation in total charge (<rho> - N_e) =  -1.628209E-10
  Pulay mixing of updated and previous charge densities.

  Evaluating partitioned Hartree potential by multipole expansion.
  | Analytical far-field extrapolation by fixed multipoles:
  | Hartree multipole sum: apparent total charge =  -0.382030E-05
  Summing up the Hartree potential.
  Time summed over all CPUs for potential: real work        1.918 s, elapsed        1.927 s
  | RMS charge density error from multipole expansion :   0.156865E-01

  Integrating Hamiltonian matrix: batch-based integration.
  Time summed over all CPUs for integration: real work        4.947 s, elapsed        5.141 s

  Updating Kohn-Sham eigenvalues, eigenvectors, occupation numbers, and Fermi level.
  Solving generalized eigenproblem
  Updating Kohn-Sham eigenvalues and eigenfunctions.
  Solving real generalised eigenvalue problem by standard LAPACK (fast)
  Determining occupation numbers for Kohn-Sham eigenstates.
  | Chemical potential (Fermi level) in eV                 : -.20516842E+01
  | Error in electron count due to remaining E_F inaccuracy: 0.83431928E-10
  | Maximum occupation number of highest empty state:  0.00E+00

  Highest occupied state (VBM) at     -2.05168421 eV
  | Occupation number:      1.00000000

  Lowest unoccupied state (CBM) at    -1.34252782 eV
  | Occupation number:      0.00000000

  Overall HOMO-LUMO gap:      0.70915639 eV.

  Total energy components:
  | Sum of eigenvalues            :        -167.96542790 Ha       -4570.57184118 eV
  | XC energy correction          :         -37.49641118 Ha       -1020.32926204 eV
  | XC potential correction       :          47.92805786 Ha        1304.18881081 eV
  | Free-atom electrostatic energy:        -143.09182087 Ha       -3893.72655644 eV
  | Hartree energy correction     :          -6.07733845 Ha        -165.37279320 eV
  | van der Waals energy corr.    :           0.00000000 Ha           0.00000000 eV
  | Entropy correction            :          -0.00010367 Ha          -0.00282095 eV
  | ---------------------------
  | Total energy                  :        -306.70294053 Ha       -8345.81164205 eV
  | Total energy, T -> 0          :        -306.70304420 Ha       -8345.81446300 eV  <-- do not rely on this value for anything but (periodic) metals
  | Electronic free energy        :        -306.70314787 Ha       -8345.81728395 eV

  Derived energy quantities:
  | Kinetic energy                :         305.80786377 Ha        8321.45536412 eV
  | Electrostatic energy          :        -575.01439312 Ha      -15646.93774413 eV
  | Energy correction for multipole
  | error in Hartree potential    :          -0.00325613 Ha          -0.08860367 eV
  | Sum of eigenvalues per atom                           :        -351.58244932 eV
  | Total energy (T->0) per atom                          :        -641.98572792 eV  <-- do not rely on this value for anything but (periodic) metals
  | Electronic free energy per atom                       :        -641.98594492 eV

  Self-consistency convergence accuracy:
  | Change of charge density      : 0.2329E-01
  | Change of sum of eigenvalues  : 0.9878E+00 eV
  | Change of total energy        : 0.4085E-02 eV

  End self-consistency iteration #     5       :  max(cpu_time)    wall_clock(cpu1)
  | Time for this iteration                    :        1.386 s           1.386 s
  | Charge density update                      :        0.452 s           0.452 s
  | Density mixing                             :        0.008 s           0.008 s
  | Hartree multipole update                   :        0.004 s           0.004 s
  | Hartree multipole summation                :        0.241 s           0.242 s
  | Integration                                :        0.644 s           0.644 s
  | Solution of K.-S. eqns.                    :        0.036 s           0.036 s
  | Total energy evaluation                    :        0.000 s           0.000 s
------------------------------------------------------------

------------------------------------------------------------
          Begin self-consistency iteration #    6

  Date     :  20150727, Time     :  122818.704
------------------------------------------------------------
  Evaluating new KS density.
  Integration grid: deviation in total charge (<rho> - N_e) =   8.342482E-11
  Pulay mixing of updated and previous charge densities.

  Evaluating partitioned Hartree potential by multipole expansion.
  | Analytical far-field extrapolation by fixed multipoles:
  | Hartree multipole sum: apparent total charge =  -0.383355E-05
  Summing up the Hartree potential.
  Time summed over all CPUs for potential: real work        1.917 s, elapsed        1.927 s
  | RMS charge density error from multipole expansion :   0.158184E-01

  Integrating Hamiltonian matrix: batch-based integration.
  Time summed over all CPUs for integration: real work        4.946 s, elapsed        5.142 s

  Updating Kohn-Sham eigenvalues, eigenvectors, occupation numbers, and Fermi level.
  Solving generalized eigenproblem
  Updating Kohn-Sham eigenvalues and eigenfunctions.
  Solving real generalised eigenvalue problem by standard LAPACK (fast)
  Determining occupation numbers for Kohn-Sham eigenstates.
  | Chemical potential (Fermi level) in eV                 : -.20541936E+01
  | Error in electron count due to remaining E_F inaccuracy: -.84625640E-10
  | Maximum occupation number of highest empty state:  0.00E+00

  Highest occupied state (VBM) at     -6.74896860 eV
  | Occupation number:      2.00000000

  Lowest unoccupied state (CBM) at    -2.05419357 eV
  | Occupation number:      1.00000000

  Overall HOMO-LUMO gap:      4.69477502 eV.

  Total energy components:
  | Sum of eigenvalues            :        -167.97764782 Ha       -4570.90436232 eV
  | XC energy correction          :         -37.49589408 Ha       -1020.31519099 eV
  | XC potential correction       :          47.92721686 Ha        1304.16592612 eV
  | Free-atom electrostatic energy:        -143.09182087 Ha       -3893.72655644 eV
  | Hartree energy correction     :          -6.06479982 Ha        -165.03159970 eV
  | van der Waals energy corr.    :           0.00000000 Ha           0.00000000 eV
  | Entropy correction            :          -0.00010367 Ha          -0.00282095 eV
  | ---------------------------
  | Total energy                  :        -306.70294572 Ha       -8345.81178334 eV
  | Total energy, T -> 0          :        -306.70304939 Ha       -8345.81460429 eV  <-- do not rely on this value for anything but (periodic) metals
  | Electronic free energy        :        -306.70315306 Ha       -8345.81742523 eV

  Derived energy quantities:
  | Kinetic energy                :         305.79197259 Ha        8321.02294316 eV
  | Electrostatic energy          :        -574.99902423 Ha      -15646.51953550 eV
  | Energy correction for multipole
  | error in Hartree potential    :          -0.00332982 Ha          -0.09060890 eV
  | Sum of eigenvalues per atom                           :        -351.60802787 eV
  | Total energy (T->0) per atom                          :        -641.98573879 eV  <-- do not rely on this value for anything but (periodic) metals
  | Electronic free energy per atom                       :        -641.98595579 eV

  Self-consistency convergence accuracy:
  | Change of charge density      : 0.7592E-02
  | Change of sum of eigenvalues  : -.3325E+00 eV
  | Change of total energy        : -.1413E-03 eV

  End self-consistency iteration #     6       :  max(cpu_time)    wall_clock(cpu1)
  | Time for this iteration                    :        1.388 s           1.389 s
  | Charge density update                      :        0.452 s           0.453 s
  | Density mixing                             :        0.010 s           0.009 s
  | Hartree multipole update                   :        0.004 s           0.005 s
  | Hartree multipole summation                :        0.242 s           0.241 s
  | Integration                                :        0.644 s           0.644 s
  | Solution of K.-S. eqns.                    :        0.036 s           0.036 s
  | Total energy evaluation                    :        0.000 s           0.001 s
------------------------------------------------------------

------------------------------------------------------------
          Begin self-consistency iteration #    7

  Date     :  20150727, Time     :  122820.093
------------------------------------------------------------
  Evaluating new KS density.
  Integration grid: deviation in total charge (<rho> - N_e) =  -8.459722E-11
  Pulay mixing of updated and previous charge densities.

  Evaluating partitioned Hartree potential by multipole expansion.
  | Analytical far-field extrapolation by fixed multipoles:
  | Hartree multipole sum: apparent total charge =  -0.383107E-05
  Summing up the Hartree potential.
  Time summed over all CPUs for potential: real work        1.918 s, elapsed        1.927 s
  | RMS charge density error from multipole expansion :   0.159227E-01

  Integrating Hamiltonian matrix: batch-based integration.
  Time summed over all CPUs for integration: real work        4.943 s, elapsed        5.134 s

  Updating Kohn-Sham eigenvalues, eigenvectors, occupation numbers, and Fermi level.
  Solving generalized eigenproblem
  Updating Kohn-Sham eigenvalues and eigenfunctions.
  Solving real generalised eigenvalue problem by standard LAPACK (fast)
  Determining occupation numbers for Kohn-Sham eigenstates.
  | Chemical potential (Fermi level) in eV                 : -.20690480E+01
  | Error in electron count due to remaining E_F inaccuracy: -.10644641E-09
  | Maximum occupation number of highest empty state:  0.00E+00

  Highest occupied state (VBM) at     -6.82027437 eV
  | Occupation number:      2.00000000

  Lowest unoccupied state (CBM) at    -2.06904797 eV
  | Occupation number:      1.00000000

  Overall HOMO-LUMO gap:      4.75122640 eV.

  Total energy components:
  | Sum of eigenvalues            :        -168.03502529 Ha       -4572.46568251 eV
  | XC energy correction          :         -37.49033322 Ha       -1020.16387218 eV
  | XC potential correction       :          47.91961082 Ha        1303.95895503 eV
  | Free-atom electrostatic energy:        -143.09182087 Ha       -3893.72655644 eV
  | Hartree energy correction     :          -6.00535531 Ha        -163.41403229 eV
  | van der Waals energy corr.    :           0.00000000 Ha           0.00000000 eV
  | Entropy correction            :          -0.00010367 Ha          -0.00282095 eV
  | ---------------------------
  | Total energy                  :        -306.70292386 Ha       -8345.81118838 eV
  | Total energy, T -> 0          :        -306.70302753 Ha       -8345.81400933 eV  <-- do not rely on this value for anything but (periodic) metals
  | Electronic free energy        :        -306.70313119 Ha       -8345.81683028 eV

  Derived energy quantities:
  | Kinetic energy                :         305.82063569 Ha        8321.80290593 eV
  | Electrostatic energy          :        -575.03322634 Ha      -15647.45022214 eV
  | Energy correction for multipole
  | error in Hartree potential    :          -0.00344635 Ha          -0.09378008 eV
  | Sum of eigenvalues per atom                           :        -351.72812942 eV
  | Total energy (T->0) per atom                          :        -641.98569303 eV  <-- do not rely on this value for anything but (periodic) metals
  | Electronic free energy per atom                       :        -641.98591002 eV

  Self-consistency convergence accuracy:
  | Change of charge density      : 0.6243E-02
  | Change of sum of eigenvalues  : -.1561E+01 eV
  | Change of total energy        : 0.5950E-03 eV

  End self-consistency iteration #     7       :  max(cpu_time)    wall_clock(cpu1)
  | Time for this iteration                    :        1.389 s           1.388 s
  | Charge density update                      :        0.451 s           0.452 s
  | Density mixing                             :        0.010 s           0.010 s
  | Hartree multipole update                   :        0.004 s           0.005 s
  | Hartree multipole summation                :        0.242 s           0.241 s
  | Integration                                :        0.643 s           0.643 s
  | Solution of K.-S. eqns.                    :        0.036 s           0.036 s
  | Total energy evaluation                    :        0.001 s           0.001 s
------------------------------------------------------------

------------------------------------------------------------
          Begin self-consistency iteration #    8

  Date     :  20150727, Time     :  122821.481
------------------------------------------------------------
  Evaluating new KS density.
  Integration grid: deviation in total charge (<rho> - N_e) =  -1.064251E-10
  Pulay mixing of updated and previous charge densities.

  Evaluating partitioned Hartree potential by multipole expansion.
  | Analytical far-field extrapolation by fixed multipoles:
  | Hartree multipole sum: apparent total charge =  -0.380745E-05
  Summing up the Hartree potential.
  Time summed over all CPUs for potential: real work        1.918 s, elapsed        1.927 s
  | RMS charge density error from multipole expansion :   0.159333E-01

  Integrating Hamiltonian matrix: batch-based integration.
  Time summed over all CPUs for integration: real work        4.936 s, elapsed        5.123 s

  Updating Kohn-Sham eigenvalues, eigenvectors, occupation numbers, and Fermi level.
  Solving generalized eigenproblem
  Updating Kohn-Sham eigenvalues and eigenfunctions.
  Solving real generalised eigenvalue problem by standard LAPACK (fast)
  Determining occupation numbers for Kohn-Sham eigenstates.
  | Chemical potential (Fermi level) in eV                 : -.20740716E+01
  | Error in electron count due to remaining E_F inaccuracy: -.66080474E-11
  | Maximum occupation number of highest empty state:  0.00E+00

  Highest occupied state (VBM) at     -6.83756490 eV
  | Occupation number:      2.00000000

  Lowest unoccupied state (CBM) at    -2.07407162 eV
  | Occupation number:      1.00000000

  Overall HOMO-LUMO gap:      4.76349328 eV.

  Total energy components:
  | Sum of eigenvalues            :        -168.05710488 Ha       -4573.06649896 eV
  | XC energy correction          :         -37.48812440 Ha       -1020.10376718 eV
  | XC potential correction       :          47.91665079 Ha        1303.87840854 eV
  | Free-atom electrostatic energy:        -143.09182087 Ha       -3893.72655644 eV
  | Hartree energy correction     :          -5.98252210 Ha        -162.79270921 eV
  | van der Waals energy corr.    :           0.00000000 Ha           0.00000000 eV
  | Entropy correction            :          -0.00010367 Ha          -0.00282095 eV
  | ---------------------------
  | Total energy                  :        -306.70292146 Ha       -8345.81112325 eV
  | Total energy, T -> 0          :        -306.70302513 Ha       -8345.81394420 eV  <-- do not rely on this value for anything but (periodic) metals
  | Electronic free energy        :        -306.70312880 Ha       -8345.81676515 eV

  Derived energy quantities:
  | Kinetic energy                :         305.82637995 Ha        8321.95921517 eV
  | Electrostatic energy          :        -575.04117702 Ha      -15647.66657124 eV
  | Energy correction for multipole
  | error in Hartree potential    :          -0.00347627 Ha          -0.09459415 eV
  | Sum of eigenvalues per atom                           :        -351.77434607 eV
  | Total energy (T->0) per atom                          :        -641.98568802 eV  <-- do not rely on this value for anything but (periodic) metals
  | Electronic free energy per atom                       :        -641.98590501 eV

  Self-consistency convergence accuracy:
  | Change of charge density      : 0.1876E-02
  | Change of sum of eigenvalues  : -.6008E+00 eV
  | Change of total energy        : 0.6513E-04 eV

  End self-consistency iteration #     8       :  max(cpu_time)    wall_clock(cpu1)
  | Time for this iteration                    :        1.392 s           1.392 s
  | Charge density update                      :        0.456 s           0.456 s
  | Density mixing                             :        0.011 s           0.012 s
  | Hartree multipole update                   :        0.004 s           0.004 s
  | Hartree multipole summation                :        0.242 s           0.242 s
  | Integration                                :        0.642 s           0.642 s
  | Solution of K.-S. eqns.                    :        0.035 s           0.035 s
  | Total energy evaluation                    :        0.001 s           0.001 s
------------------------------------------------------------

------------------------------------------------------------
          Begin self-consistency iteration #    9

  Date     :  20150727, Time     :  122822.873
------------------------------------------------------------
  Evaluating new KS density.
  Integration grid: deviation in total charge (<rho> - N_e) =  -6.593837E-12
  Pulay mixing of updated and previous charge densities.

  Evaluating partitioned Hartree potential by multipole expansion.
  | Analytical far-field extrapolation by fixed multipoles:
  | Hartree multipole sum: apparent total charge =  -0.380762E-05
  Summing up the Hartree potential.
  Time summed over all CPUs for potential: real work        1.917 s, elapsed        1.927 s
  | RMS charge density error from multipole expansion :   0.159288E-01

  Integrating Hamiltonian matrix: batch-based integration.
  Time summed over all CPUs for integration: real work        4.937 s, elapsed        5.124 s

  Updating Kohn-Sham eigenvalues, eigenvectors, occupation numbers, and Fermi level.
  Solving generalized eigenproblem
  Updating Kohn-Sham eigenvalues and eigenfunctions.
  Solving real generalised eigenvalue problem by standard LAPACK (fast)
  Determining occupation numbers for Kohn-Sham eigenstates.
  | Chemical potential (Fermi level) in eV                 : -.20739383E+01
  | Error in electron count due to remaining E_F inaccuracy: -.94999564E-11
  | Maximum occupation number of highest empty state:  0.00E+00

  Highest occupied state (VBM) at     -6.83479718 eV
  | Occupation number:      2.00000000

  Lowest unoccupied state (CBM) at    -2.07393834 eV
  | Occupation number:      1.00000000

  Overall HOMO-LUMO gap:      4.76085884 eV.

  Total energy components:
  | Sum of eigenvalues            :        -168.05428871 Ha       -4572.98986697 eV
  | XC energy correction          :         -37.48843176 Ha       -1020.11213093 eV
  | XC potential correction       :          47.91706007 Ha        1303.88954565 eV
  | Free-atom electrostatic energy:        -143.09182087 Ha       -3893.72655644 eV
  | Hartree energy correction     :          -5.98543972 Ha        -162.87210172 eV
  | van der Waals energy corr.    :           0.00000000 Ha           0.00000000 eV
  | Entropy correction            :          -0.00010367 Ha          -0.00282095 eV
  | ---------------------------
  | Total energy                  :        -306.70292099 Ha       -8345.81111041 eV
  | Total energy, T -> 0          :        -306.70302466 Ha       -8345.81393136 eV  <-- do not rely on this value for anything but (periodic) metals
  | Electronic free energy        :        -306.70312833 Ha       -8345.81675230 eV

  Derived energy quantities:
  | Kinetic energy                :         305.82928124 Ha        8322.03816330 eV
  | Electrostatic energy          :        -575.04377048 Ha      -15647.73714278 eV
  | Energy correction for multipole
  | error in Hartree potential    :          -0.00347347 Ha          -0.09451798 eV
  | Sum of eigenvalues per atom                           :        -351.76845131 eV
  | Total energy (T->0) per atom                          :        -641.98568703 eV  <-- do not rely on this value for anything but (periodic) metals
  | Electronic free energy per atom                       :        -641.98590402 eV

  Self-consistency convergence accuracy:
  | Change of charge density      : 0.6222E-03
  | Change of sum of eigenvalues  : 0.7663E-01 eV
  | Change of total energy        : 0.1284E-04 eV

  End self-consistency iteration #     9       :  max(cpu_time)    wall_clock(cpu1)
  | Time for this iteration                    :        1.390 s           1.390 s
  | Charge density update                      :        0.453 s           0.453 s
  | Density mixing                             :        0.013 s           0.013 s
  | Hartree multipole update                   :        0.005 s           0.004 s
  | Hartree multipole summation                :        0.241 s           0.242 s
  | Integration                                :        0.642 s           0.642 s
  | Solution of K.-S. eqns.                    :        0.036 s           0.036 s
  | Total energy evaluation                    :        0.000 s           0.000 s
------------------------------------------------------------

------------------------------------------------------------
          Begin self-consistency iteration #   10

  Date     :  20150727, Time     :  122824.263
------------------------------------------------------------
  Evaluating new KS density.
  Integration grid: deviation in total charge (<rho> - N_e) =  -9.514167E-12
[...]
  | Electronic free energy        :        -306.70526908 Ha       -8345.87500503 eV

  Derived energy quantities:
  | Kinetic energy                :         305.82991379 Ha        8322.05537588 eV
  | Electrostatic energy          :        -575.04412753 Ha      -15647.74685879 eV
  | Energy correction for multipole
  | error in Hartree potential    :          -0.00348108 Ha          -0.09472492 eV
  | Sum of eigenvalues per atom                           :        -351.76371379 eV
  | Total energy (T->0) per atom                          :        -641.99016801 eV  <-- do not rely on this value for anything but (periodic) metals
  | Electronic free energy per atom                       :        -641.99038500 eV

  atomic forces [eV/Ang]:
  -----------------------
  atom #    1
   Hellmann-Feynman + Multipole  : -.211308E+01 -.697430E+01 -.863604E+01
   Pulay + GGA                   : 0.207569E+01 0.844997E+01 0.672319E+01
   Van der Waals               : 0.263479E-02 0.629780E-02 -.463945E-02
   ----------------------------------------------------------------
   Total forces(   1)            : -.347499E-01 0.148197E+01 -.191748E+01
  atom #    2
   Hellmann-Feynman + Multipole  : 0.672893E+00 -.121575E+01 0.524525E+00
   Pulay + GGA                   : -.982317E-01 0.102691E+00 -.688348E-01
   Van der Waals               : -.716633E-03 -.112105E-02 -.156570E-02
   ----------------------------------------------------------------
   Total forces(   2)            : 0.573945E+00 -.111418E+01 0.454124E+00
  atom #    3
   Hellmann-Feynman + Multipole  : -.395858E+00 -.166407E+00 0.222142E-01
   Pulay + GGA                   : 0.172074E+00 0.287633E-01 0.162752E-01
   Van der Waals               : -.491117E-04 0.430637E-02 0.129702E-03
   ----------------------------------------------------------------
   Total forces(   3)            : -.223834E+00 -.133337E+00 0.386192E-01
  atom #    4
   Hellmann-Feynman + Multipole  : -.156476E+00 -.132245E+00 0.129796E+01
   Pulay + GGA                   : -.373010E-01 -.117245E-01 0.694834E-01
   Van der Waals               : 0.676420E-03 0.439356E-02 0.194058E-02
   ----------------------------------------------------------------
   Total forces(   4)            : -.193101E+00 -.139576E+00 0.136938E+01
  atom #    5
   Hellmann-Feynman + Multipole  : 0.715921E+01 -.523200E+01 -.747393E+01
   Pulay + GGA                   : -.783067E+01 0.303455E+01 0.599324E+01
   Van der Waals               : -.175877E-02 -.527982E-02 0.211205E-02
   ----------------------------------------------------------------
   Total forces(   5)            : -.673223E+00 -.220273E+01 -.147858E+01
  atom #    6
   Hellmann-Feynman + Multipole  : 0.129932E+00 0.150841E+01 0.120075E+01
   Pulay + GGA                   : 0.944774E-02 0.481339E-01 0.824658E-01
   Van der Waals               : -.115631E-02 0.141069E-02 0.614457E-02
   ----------------------------------------------------------------
   Total forces(   6)            : 0.138223E+00 0.155795E+01 0.128936E+01
  atom #    7
   Hellmann-Feynman + Multipole  : 0.486674E+00 0.542445E+00 0.969862E-01
   Pulay + GGA                   : -.108318E+00 -.528484E-01 0.453638E-01
   Van der Waals               : -.143989E-04 0.181655E-02 0.220562E-02
   ----------------------------------------------------------------
   Total forces(   7)            : 0.378342E+00 0.491413E+00 0.144556E+00
  atom #    8
   Hellmann-Feynman + Multipole  : 0.765389E+01 -.449508E+01 -.938091E+01
   Pulay + GGA                   : -.885740E+01 0.582561E+01 0.108557E+02
   Van der Waals               : 0.725892E-03 0.208091E-02 -.691640E-02
   ----------------------------------------------------------------
   Total forces(   8)            : -.120278E+01 0.133261E+01 0.146783E+01
  atom #    9
   Hellmann-Feynman + Multipole  : -.365315E+00 0.313029E+00 -.195224E+01
   Pulay + GGA                   : 0.233218E-01 0.107650E-02 0.132134E+00
   Van der Waals               : -.381645E-03 -.673344E-04 -.247558E-02
   ----------------------------------------------------------------
   Total forces(   9)            : -.342375E+00 0.314039E+00 -.182258E+01
  atom #   10
   Hellmann-Feynman + Multipole  : 0.170264E+01 -.162117E+01 0.440387E+00
   Pulay + GGA                   : -.951381E-01 0.881796E-01 -.818352E-02
   Van der Waals               : -.107203E-02 -.188856E-02 -.115761E-04
   ----------------------------------------------------------------
   Total forces(  10)            : 0.160643E+01 -.153488E+01 0.432192E+00
  atom #   11
   Hellmann-Feynman + Multipole  : -.141407E+02 -.528576E+01 0.382283E+00
   Pulay + GGA                   : 0.151116E+02 0.659661E+01 -.881917E+00
   Van der Waals               : 0.105749E-02 -.602597E-02 0.337509E-02
   ----------------------------------------------------------------
   Total forces(  11)            : 0.971908E+00 0.130483E+01 -.496259E+00
  atom #   12
   Hellmann-Feynman + Multipole  : -.478105E+00 0.111430E-01 -.113540E+00
   Pulay + GGA                   : 0.128823E+00 -.614600E-01 0.323710E-01
   Van der Waals               : 0.412395E-03 -.309217E-02 -.132281E-02
   ----------------------------------------------------------------
   Total forces(  12)            : -.348870E+00 -.534092E-01 -.824918E-01
  atom #   13
   Hellmann-Feynman + Multipole  : -.694280E+00 -.142304E+01 0.675115E+00
   Pulay + GGA                   : 0.505642E-01 0.117113E+00 -.669341E-01
   Van der Waals               : -.358094E-03 -.283098E-02 0.102390E-02
   ----------------------------------------------------------------
   Total forces(  13)            : -.644074E+00 -.130876E+01 0.609205E+00
  Timings for vdw_correction_hirshfeld (Tkatchenko-Scheffler 2009):
  | CPU time:        3.740 s, Wall clock time:        3.741 s.
  Removing unitary transformations (pure translations, rotations) from forces on atoms.
  Atomic forces before filtering:
  | Net force on center of mass :  0.583338E-02 -.406325E-02 0.787722E-02 eV/A
  | Net torque on center of mass:  0.756445E-02 -.823383E-02 -.131890E-01 eV
  Atomic forces after filtering:
  | Net force on center of mass :  0.178406E-15 -.356812E-15 0.713624E-15 eV/A
  | Net torque on center of mass:  0.000000E+00 0.802472E-15 0.377634E-15 eV
 
  Energy and forces in a compact form:
  | Total energy uncorrected      :         -0.834586936313372E+04 eV
  | Total energy corrected        :         -0.834587218408164E+04 eV  <-- do not rely on this value for anything but (periodic) metals
  | Electronic free energy        :         -0.834587500502955E+04 eV
  Total atomic forces (unitary forces cleaned) [eV/Ang]:
  |   1         -0.350823586919121E-01          0.148214012475570E+01         -0.191795479536283E+01
  |   2          0.573304781107504E+00         -0.111419009180432E+01          0.453652088977323E+00
  |   3         -0.224228622359710E+00         -0.132903248493067E+00          0.379553773751418E-01
  |   4         -0.193243121682947E+00         -0.139405345057695E+00          0.136897072926379E+01
  |   5         -0.673056605047534E+00         -0.220247326723243E+01         -0.147893163213790E+01
  |   6          0.138291126434863E+00          0.155832176951722E+01          0.128889714632300E+01
  |   7          0.378682218498757E+00          0.491478466959291E+00          0.144379859284904E+00
  |   8         -0.120301459137200E+01          0.133318087454277E+01          0.146713882037626E+01
  |   9         -0.342419173094033E+00          0.314739707850493E+00         -0.182329439007938E+01
  |  10          0.160597660572448E+01         -0.153451767486466E+01          0.431551844020474E+00
  |  11          0.970563624662539E+00          0.130504715026431E+01         -0.497118351556248E+00
  |  12         -0.350056673272154E+00         -0.529328567925741E-01         -0.834575368277874E-01
  |  13         -0.645717210907851E+00         -0.130848560964505E+01          0.608210840343250E+00
 
  ------------------------------------ 
  Start decomposition of the XC Energy 
  ------------------------------------ 
  Hartree-Fock part   :          0.000000000 Ha              0.000000000 eV
  ------------------------------------ 
  X Energy            :        -36.164909323 Ha           -984.097252988 eV
  C Energy GGA        :         -1.323798073 Ha            -36.022378359 eV
  Total XC Energy     :        -37.488707395 Ha          -1020.119631346 eV
  LDA X and C from self-consistent density 
  X Energy LDA        :        -32.582671532 Ha           -886.619603084 eV
  C Energy LDA        :         -2.674666305 Ha            -72.781373222 eV
  ------------------------------------ 
  End decomposition of the XC Energy 
  ------------------------------------ 
  Performing Hirshfeld analysis of fragment charges and moments.
  ----------------------------------------------------------------------
  | Atom     1: O
  |   Hirshfeld charge        :     -0.12755652
  |   Free atom volume        :     23.95238533
  |   Hirshfeld volume        :     23.24383394
  |   Hirshfeld dipole vector :      0.00228036       0.01788854       0.04008700
  |   Hirshfeld dipole moment :      0.04395643
  |   Hirshfeld second moments:      0.05438016      -0.00569352      -0.00619495
  |                                 -0.00569352       0.01228065      -0.02674868
  |                                 -0.00619495      -0.02674868       0.02793175
  ----------------------------------------------------------------------
  | Atom     2: H
  |   Hirshfeld charge        :      0.05954327
  |   Free atom volume        :     10.44207651
  |   Hirshfeld volume        :     13.95009603
  |   Hirshfeld dipole vector :      0.00385288      -0.00705593       0.03062658
  |   Hirshfeld dipole moment :      0.03166415
  |   Hirshfeld second moments:     -0.04399057       0.01174717      -0.00046736
  |                                  0.01174717      -0.04169789       0.01803006
  |                                 -0.00046736       0.01803006      -0.03976251
  ----------------------------------------------------------------------
  | Atom     3: H
  |   Hirshfeld charge        :      0.08138164
  |   Free atom volume        :     10.44207651
  |   Hirshfeld volume        :     13.85854302
  |   Hirshfeld dipole vector :     -0.00063583      -0.00202938       0.02446916
  |   Hirshfeld dipole moment :      0.02456140
  |   Hirshfeld second moments:     -0.05678173      -0.01839584       0.00220070
  |                                 -0.01839584      -0.02095546       0.00421584
  |                                  0.00220070       0.00421584      -0.01691790
  ----------------------------------------------------------------------
  | Atom     4: H
  |   Hirshfeld charge        :      0.09766939
  |   Free atom volume        :     10.44207651
  |   Hirshfeld volume        :     10.34610886
  |   Hirshfeld dipole vector :     -0.01124078      -0.00056498       0.02228380
  |   Hirshfeld dipole moment :      0.02496482
  |   Hirshfeld second moments:      0.04068617       0.00999722       0.00384672
  |                                  0.00999722       0.04375765       0.00202329
  |                                  0.00384672       0.00202329       0.00807802
  ----------------------------------------------------------------------
  | Atom     5: O
  |   Hirshfeld charge        :     -0.23885836
  |   Free atom volume        :     23.95238533
  |   Hirshfeld volume        :     22.07236421
  |   Hirshfeld dipole vector :     -0.02269374       0.02295957       0.00123580
  |   Hirshfeld dipole moment :      0.03230596
  |   Hirshfeld second moments:      0.02721269       0.04695275      -0.01280194
  |                                  0.04695275       0.02701038       0.00972380
  |                                 -0.01280194       0.00972380       0.05046661
  ----------------------------------------------------------------------
  | Atom     6: H
  |   Hirshfeld charge        :      0.08824747
  |   Free atom volume        :     10.44207651
  |   Hirshfeld volume        :      9.39538539
  |   Hirshfeld dipole vector :      0.00792926       0.02680872       0.02968185
  |   Hirshfeld dipole moment :      0.04077490
  |   Hirshfeld second moments:      0.04908333       0.00025105      -0.00579402
  |                                  0.00025105       0.02807923      -0.01622575
  |                                 -0.00579402      -0.01622575       0.05922209
  ----------------------------------------------------------------------
  | Atom     7: H
  |   Hirshfeld charge        :      0.13145231
  |   Free atom volume        :     10.44207651
  |   Hirshfeld volume        :      9.47091365
  |   Hirshfeld dipole vector :     -0.07019263      -0.04656204       0.02318212
  |   Hirshfeld dipole moment :      0.08736383
  |   Hirshfeld second moments:      0.04563329       0.01239493      -0.00162253
  |                                  0.01239493       0.06472376       0.01023376
  |                                 -0.00162253       0.01023376       0.06771933
  ----------------------------------------------------------------------
  | Atom     8: O
  |   Hirshfeld charge        :     -0.24324252
  |   Free atom volume        :     23.95238533
  |   Hirshfeld volume        :     22.37118452
  |   Hirshfeld dipole vector :     -0.03947389      -0.01078661       0.01849873
  |   Hirshfeld dipole moment :      0.04490815
  |   Hirshfeld second moments:     -0.01522252      -0.03201851       0.03523662
  |                                 -0.03201851       0.03124727      -0.00542723
  |                                  0.03523662      -0.00542723       0.04219585
  ----------------------------------------------------------------------
  | Atom     9: H
  |   Hirshfeld charge        :      0.12469904
  |   Free atom volume        :     10.44207651
  |   Hirshfeld volume        :      8.98343926
  |   Hirshfeld dipole vector :      0.01553882      -0.01410208       0.08865962
  |   Hirshfeld dipole moment :      0.09110901
  |   Hirshfeld second moments:      0.06061553      -0.01558442       0.01420521
  |                                 -0.01558442       0.07417029       0.00285224
  |                                  0.01420521       0.00285224       0.06068001
  ----------------------------------------------------------------------
  | Atom    10: H
  |   Hirshfeld charge        :      0.12946014
  |   Free atom volume        :     10.44207651
  |   Hirshfeld volume        :      9.03567132
  |   Hirshfeld dipole vector :     -0.06190433       0.05886353      -0.01466821
  |   Hirshfeld dipole moment :      0.08667305
  |   Hirshfeld second moments:      0.05001674      -0.00377370      -0.00074119
  |                                 -0.00377370       0.06317139       0.00277598
  |                                 -0.00074119       0.00277598       0.07506660
  ----------------------------------------------------------------------
  | Atom    11: O
  |   Hirshfeld charge        :     -0.31823064
  |   Free atom volume        :     23.95238533
  |   Hirshfeld volume        :     24.06761824
  |   Hirshfeld dipole vector :      0.05893049       0.03447726       0.00305355
  |   Hirshfeld dipole moment :      0.06834331
  |   Hirshfeld second moments:     -0.02951697      -0.01836283       0.01788125
  |                                 -0.01836283      -0.00258895      -0.06646097
  |                                  0.01788125      -0.06646097      -0.06031983
  ----------------------------------------------------------------------
  | Atom    12: H
  |   Hirshfeld charge        :      0.09245695
  |   Free atom volume        :     10.44207651
  |   Hirshfeld volume        :     10.04048255
  |   Hirshfeld dipole vector :      0.07517990      -0.01160966       0.04120063
  |   Hirshfeld dipole moment :      0.08651181
  |   Hirshfeld second moments:      0.03841769       0.02450554      -0.00114257
  |                                  0.02450554       0.04836031      -0.02525479
  |                                 -0.00114257      -0.02525479       0.02909677
  ----------------------------------------------------------------------
  | Atom    13: H
  |   Hirshfeld charge        :      0.12292839
  |   Free atom volume        :     10.44207651
  |   Hirshfeld volume        :      8.41818004
  |   Hirshfeld dipole vector :      0.03431833       0.10312021      -0.04567068
  |   Hirshfeld dipole moment :      0.11788696
  |   Hirshfeld second moments:      0.08778413      -0.01083257       0.01147702
  |                                 -0.01083257       0.07513542      -0.02387977
  |                                  0.01147702      -0.02387977       0.06244444
  ----------------------------------------------------------------------


------------------------------------------------------------------------------
  Final output of selected total energy values:

  The following output summarizes some interesting total energy values
  at the end of a run (AFTER all relaxation, molecular dynamics, etc.).

  | Total energy of the DFT / Hartree-Fock s.c.f. calculation      :          -8345.869363134 eV
  | Final zero-broadening corrected energy (caution - metals only) :          -8345.872184082 eV
  | For reference only, the value of 1 Hartree used in FHI-aims is :             27.211384500 eV

  Before relying on these values, please be sure to understand exactly which
  total energy value is referred to by a given number. Different objects may
  all carry the same name 'total energy'. Definitions:

  Total energy of the DFT / Hartree-Fock s.c.f. calculation:
  | Note that this energy does not include ANY quantities calculated after the
  | s.c.f. cycle, in particular not ANY RPA, MP2, etc. many-body perturbation terms.

  Final zero-broadening corrected energy:
  | For metallic systems only, a broadening of the occupation numbers at the Fermi
  | level can be extrapolated back to zero broadening by an electron-gas inspired
  | formula. For all systems that are not real metals, this value can be
  | meaningless and should be avoided.

------------------------------------------------------------------------------

------------------------------------------------------------
          Leaving FHI-aims.
          Date     :  20150727, Time     :  122839.214

          Computational steps:
          | Number of self-consistency cycles          :           16

          Detailed time accounting                     :  max(cpu_time)    wall_clock(cpu1)
          | Total time                                 :       29.442 s          29.469 s
          | Preparation time                           :        0.173 s           0.563 s
          | Grid partitioning                          :        0.108 s           0.107 s
          | Preloading free-atom quantities on grid    :        0.013 s           0.014 s
          | Free-atom superposition energy             :        0.052 s           0.051 s
          | Total time for integrations                :       11.274 s          11.277 s
          | Total time for solution of K.-S. equations :        0.706 s           0.706 s
          | Total time for density & force components  :       11.157 s          11.160 s
          | Total time for mixing                      :        0.173 s           0.174 s
          | Total time for Hartree multipole update    :        0.069 s           0.070 s
          | Total time for Hartree multipole sum       :        5.066 s           5.067 s
          | Total time for total energy evaluation     :        0.005 s           0.009 s
          | Total time for scaled ZORA corrections     :        0.000 s           0.000 s
          | Total time for TS (2009) vdW correction    :        0.039 s           0.040 s

          Have a nice day.
------------------------------------------------------------
