  MPI-parallelism will be employed.
------------------------------------------------------------
          Invoking FHI-aims ...
          Version 081213
          Compiled on 2013/08/29 at 17:41:06 on host generoso.

          When using FHI-aims, please cite the following reference:

          Volker Blum, Ralf Gehrke, Felix Hanke, Paula Havu,
          Ville Havu, Xinguo Ren, Karsten Reuter, and Matthias Scheffler,
          'Ab Initio Molecular Simulations with Numeric Atom-Centered Orbitals: FHI-aims',
          Computer Physics Communications 180, 2175-2196 (2009)

          For any questions about FHI-aims, please visit the aimsclub website
          with its forums and wiki. Contributions to both the forums and the
          wiki are warmly encouraged - they are for you, and everyone is welcome there.

------------------------------------------------------------

  Date     :  20150727, Time     :  122401.924
  Time zero on CPU 1             :   0.429930000000000E-01  s.
  Internal wall clock time zero  :           207231841.924  s.

  Using        8 parallel tasks.
  Task        0 on host gen59 reporting.
  Task        1 on host gen59 reporting.
  Task        2 on host gen59 reporting.
  Task        3 on host gen59 reporting.
  Task        4 on host gen59 reporting.
  Task        5 on host gen59 reporting.
  Task        6 on host gen59 reporting.
  Task        7 on host gen59 reporting.

  Performing system and environment tests:
  | Environment variable OMP_NUM_THREADS correctly set to 1.
  | Checking for scalapack...
  | No scalapack compiled in.

  Obtaining array dimensions for all initial allocations:
  
  -----------------------------------------------------------------------
  Parsing control.in (first pass over file, find array dimensions only).
  The contents of control.in will be repeated verbatim below
  unless switched off by setting 'verbatim_writeout .false.' .
  in the first line of control.in .
  -----------------------------------------------------------------------
  
  #########################################################################################
  #
  #  Volker Blum, FHI 2008 : Test run input file control.in
  #
  #########################################################################################
  #
  #  Physical model
  #
    xc                 rpbe
    spin               none
    relativistic       atomic_zora scalar
    charge             0.
   vdw_correction_hirshfeld
  #
  #  SCF convergence
  #
    occupation_type    gaussian 0.01
    mixer              pulay
      n_max_pulay        10
      charge_mix_param   0.1
    sc_accuracy_rho    5E-5
    sc_accuracy_eev    5E-3
    sc_accuracy_etot   5E-6
    sc_iter_limit      3000
  #
  #  Eigenvalue solver
  #
    KS_method          lapack
      empty_states       8
      basis_threshold    0.e-5
  #
  #  Efficiency
  #
  #   all previous settings are now default, except stratmann still
  #   undecided. Continue to handle stratmann with care, if at all.
  #
  #  partition_type stratmann
    partition_type rho_r2
  #  hartree_partition_type stratmann
  #
  #  Oprions for large clusters (100's of atoms: memory saving / better scaling)
  #
  # for periodic systems:
  #
    density_update_method orbital
    packed_matrix_format none
  #  k_grid 6 6 6
  #  output k_eigenvalue 1
  #  distributed_spline_storage .true.
  #
  #  Relaxation
  #
  #  relax_geometry   bfgs 5.e-3
    sc_accuracy_forces 5.E-4
    final_forces_cleaned .true.
  #
  #  Output options
  #
  #  output mulliken
    output Hirshfeld
  #  output dipole
  
  #harmonic_length_scale 0.001
  
  ################################################################################
  #
  #  FHI-aims code project
  #  VB, Fritz-Haber Institut, 2007
  #
  #  Suggested "safe" defaults for H atom (to be pasted into control.in file)
  #  Basis constructed for a non-relativistic H2 molecule using the
  #  PW-LDA functional.
  #
  ################################################################################
    species        H
  #     global species definitions
      nucleus             1
      cut_pot             4.0  2.0  1.0
      cut_free_atom       finite 8.0
      logarithmic         0.00010000 100.00  1.0123
      basis_dep_cutoff    1d-4  # 1d-4 is safe default - please check 5d-4 if you wish!
      radial_base         24 7.0
      radial_multiplier   2
      angular_grids       specified
        division   0.2783  110
        division   0.3822  194
        division   0.5626  302
  #      division   0.5922  434
  #      division   0.6227  590
  #      division   0.7206  770
        outer_grid  302
      l_hartree           4
  ################################################################################
  #
  #  Definition of "minimal" basis
  #
  ################################################################################
  #     valence basis states
      valence      1  s   1.
  #     ion occupancy
      ion_occ      1  s   0.5
  ################################################################################
  #
  #  Suggested additional basis functions. For production calculations,
  #  uncomment them one after another (the most important basis functions are
  #  listed first).
  #
  ################################################################################
  #  "First tier" - improvements: -1014.90 meV to -62.69 meV
       hydro 2 s 2.1
       hydro 2 p 3.5
  #  "Second tier" - improvements: -12.89 meV to -1.83 meV
       hydro 1 s 0.85
       hydro 2 p 3.7
       hydro 2 s 1.2
       hydro 3 d 7
  #  "Third tier" - improvements: -0.25 meV to -0.12 meV
  #     hydro 4 f 11.2
  #     hydro 3 p 4.8
  #     hydro 4 d 9
  #     hydro 3 s 3.2
  
  ################################################################################
  #
  #  FHI-aims code project
  #  VB, Fritz-Haber Institut, 2007
  #
  #  Suggested "safe" defaults for O atom (to be pasted into control.in file)
  #  All values have been tested for a non-relativistic, non-spinpolarized O2
  #  molecule using the PW-LDA functional. Validity for PBE is expected.
  #
  #  Constructed for dimers: 1.0 A, 1.208 A, 1.5 A, 2.0 A, 3.0 A
  #
  ################################################################################
    species        O
  #     global species definitions
      nucleus             8
      mass                15.9994
      l_hartree           4
      cut_pot             4.0  2.0  1.0
      cut_free_atom       finite 8.0
      basis_dep_cutoff    1d-4  # 1d-4 is safe default - please check 5d-4 if you wish!
      logarithmic         0.00010000 100.00  1.0123
      radial_base         36 7.0
      radial_multiplier   2
       angular_grids specified
        division   0.4087  110
        division   0.5181  194
        division   0.6184  302
  #      division   0.7315  434
  #      division   0.7934  590
  #      division   0.9656  770
  #      division   1.4041  974
  #      outer_grid 974
        outer_grid 302
  ################################################################################
  #
  #  Definition of "minimal" basis
  #
  ################################################################################
  #     valence basis states
      valence      2  s   2.
      valence      2  p   4.
  #     ion occupancy
      ion_occ      2  s   1.
      ion_occ      2  p   3.
  ################################################################################
  #
  #  Suggested additional basis functions. For production calculations,
  #  uncomment them one after another (the most important basis functions are
  #  listed first).
  #
  ################################################################################
  #  "First tier" - improvements: -699.05 meV to -159.38 meV
       hydro 2 p 1.8
       hydro 3 d 7.6
       hydro 3 s 6.4
  #  "Second tier" - improvements: -49.91 meV to -5.39 meV
       hydro 4 f 11.6
       hydro 3 p 6.2
       hydro 3 d 5.6
       hydro 5 g 17.6
       hydro 1 s 0.75
  #  "Third tier" - improvements: -2.83 meV to -0.50 meV
  #     ionic 2 p auto
  #     hydro 4 f 10.8
  #     hydro 4 d 4.7
  #     hydro 2 s 6.8
  #  "Fourth tier" - improvements: -0.40 meV to -0.12 meV
  #     hydro 3 p 5
  #     hydro 3 s 3.3
  #     hydro 5 g 15.6
  #     hydro 4 f 17.6
  #     hydro 4 d 14
  # Further basis functions - -0.08 meV and below
  #     hydro 3 s 2.1
  #     hydro 4 d 11.6
  #     hydro 3 p 16
  #     hydro 2 s 17.2
  
  
  -----------------------------------------------------------------------
  Completed first pass over input file control.in .
  -----------------------------------------------------------------------
  
  
  -----------------------------------------------------------------------
  Parsing geometry.in (first pass over file, find array dimensions only).
  The contents of geometry.in will be repeated verbatim below
  unless switched off by setting 'verbatim_writeout .false.' .
  in the first line of geometry.in .
  -----------------------------------------------------------------------
  
  atom      -4.053030000      0.065001000     -1.525160000  O
  atom      -4.566710000      0.974813000     -1.912820000  H
  atom      -3.067820000      0.330172000     -1.477310000  H
  atom      -4.370360000     -0.049164000     -0.572274000  H
  atom      -4.581760000     -0.256435000      0.939478000  O
  atom      -4.349860000      0.471090000      1.504340000  H
  atom      -5.393870000     -0.726611000      1.228070000  H
  atom      -1.645860000      0.870179000     -1.502250000  O
  atom      -1.568890000      1.501730000     -0.721051000  H
  atom      -0.824432000      0.282220000     -1.377720000  H
  
  -----------------------------------------------------------------------
  Completed first pass over input file geometry.in .
  -----------------------------------------------------------------------
  
 
  Basic array size parameters: 
  | Number of species                 :        2
  | Number of atoms                   :       10
  | Max. basis fn. angular momentum   :        4
  | Max. atomic/ionic basis occupied n:        2
  | Max. number of basis fn. types    :        2
  | Max. radial fns per species/type  :        8
  | Max. logarithmic grid size        :     1301
  | Max. radial integration grid size :       73
  | Max. angular integration grid size:      302
  | Max. angular grid division number :        8
  | Radial grid for Hartree potential :     1301
  | Number of spin channels           :        1

------------------------------------------------------------
          Reading file control.in.
------------------------------------------------------------
  XC: Using RPBE gradient-corrected functionals.
  Spin treatment: No spin polarisation.
  Scalar relativistic treatment of kinetic energy: on-site free-atom approximation to ZORA.
  Charge =   0.000000E+00: Neutral system requested explicitly.
  Using non-empirical van der Waals correction (Hirshfeld partitioning):
  Occupation type: Gaussian broadening, width =   0.100000E-01 eV.
  Using pulay charge density mixing.
  Pulay mixing - number of memorized iterations:   10
  Charge density mixing - mixing parameter:     0.1000
  Convergence accuracy of self-consistent charge density: 0.5000E-04
  Convergence accuracy of sum of eigenvalues: 0.5000E-02
  Convergence accuracy of total energy: 0.5000E-05
  Maximum number of s.-c. iterations  :  3000
  Kohn-Sham eigenvalues and eigenfunctions calculated by lapack diagonalisation (D&C).
  Number of empty states per atom:        8
  Threshold for basis singularities: 0.0000E+00
  Partition function in integrals calculations: rho / r^2
 Using packed matrix format           0
  Convergence accuracy of forces: 0.5000E-03
  Cleaning forces before final output.
  Hirshfeld charge analysis will be performed.
 
  Reading configuration options for species H                   .
  | Found nuclear charge :   1.0000
  | Found cutoff potl. onset [A], width [A], scale factor :    4.00000    2.00000    1.00000
  | Found cutoff specification for free atom: Cutoff potential begins at    8.00000 A.
  | Found logarithmic grid data [bohr] : 0.1000E-03 0.1000E+03 0.1012E+01
  | Threshold for basis-dependent cutoff potential is   0.100000E-03
  | Found data for basic radial integration grid :    24 points, outermost radius =    7.000 A
  | Found multiplier for basic radial grid :   2
  | Found angular grid specification: user-specified.
  | Specified grid contains     4 separate shells.
  | Check grid settings after all constraints further below.
  | Found l_max for Hartree potential  :   4
  | Found free-atom valence shell :  1 s   1.000
  | No ionic wave fns used. Skipping ion_occ.
  | Found hydrogenic basis function :  2 s   2.100
  | Found hydrogenic basis function :  2 p   3.500
  | Found hydrogenic basis function :  1 s   0.850
  | Found hydrogenic basis function :  2 p   3.700
  | Found hydrogenic basis function :  2 s   1.200
  | Found hydrogenic basis function :  3 d   7.000
  Species H                   : Missing cutoff potential type.
  Defaulting to exp(1/x)/(1-x)^2 type cutoff potential.
  Species H : On-site basis accuracy parameter (for Gram-Schmidt orthonormalisation) not specified.
  Using default value basis_acc =  0.1000000E-03.
  Species H                   : Using default innermost maximum threshold i_radial=  2 for radial functions.
  Species H                   : Basic radial grid will be enhanced according to radial_multiplier =   2, to contain    49 grid points.
 
  Reading configuration options for species O                   .
  | Found nuclear charge :   8.0000
  | Found atomic mass :    15.9994000000000      amu
  | Found l_max for Hartree potential  :   4
  | Found cutoff potl. onset [A], width [A], scale factor :    4.00000    2.00000    1.00000
  | Found cutoff specification for free atom: Cutoff potential begins at    8.00000 A.
  | Threshold for basis-dependent cutoff potential is   0.100000E-03
  | Found logarithmic grid data [bohr] : 0.1000E-03 0.1000E+03 0.1012E+01
  | Found data for basic radial integration grid :    36 points, outermost radius =    7.000 A
  | Found multiplier for basic radial grid :   2
  | Found angular grid specification: user-specified.
  | Specified grid contains     4 separate shells.
  | Check grid settings after all constraints further below.
  | Found free-atom valence shell :  2 s   2.000
  | Found free-atom valence shell :  2 p   4.000
  | No ionic wave fns used. Skipping ion_occ.
  | No ionic wave fns used. Skipping ion_occ.
  | Found hydrogenic basis function :  2 p   1.800
  | Found hydrogenic basis function :  3 d   7.600
  | Found hydrogenic basis function :  3 s   6.400
  | Found hydrogenic basis function :  4 f  11.600
  | Found hydrogenic basis function :  3 p   6.200
  | Found hydrogenic basis function :  3 d   5.600
  | Found hydrogenic basis function :  5 g  17.600
  | Found hydrogenic basis function :  1 s   0.750
  Species O                   : Missing cutoff potential type.
  Defaulting to exp(1/x)/(1-x)^2 type cutoff potential.
  Species O : On-site basis accuracy parameter (for Gram-Schmidt orthonormalisation) not specified.
  Using default value basis_acc =  0.1000000E-03.
  Species O                   : Using default innermost maximum threshold i_radial=  2 for radial functions.
  Species O                   : Basic radial grid will be enhanced according to radial_multiplier =   2, to contain    73 grid points.
 
  Finished reading input file 'control.in'. Consistency checks are next.
 
  Target number of points in a grid batch is not set. Defaulting to  100
  Method for grid partitioning is not set. Defaulting to parallel hash+maxmin partitioning.
  Batch size limit is not set. Defaulting to    200
  By default, will store active basis functions for each batch.
  If in need of memory, prune_basis_once .false. can be used to disable this option.
  communication_type for Hartree potential was not specified.
  Defaulting to calc_hartree .
  Pulay mixer: Number of initial linear mixing iterations not set.
  Defaulting to    0 iterations.
  Work space size for distributed Hartree potential not set.
  Defaulting to   0.200000E+03 MB.
  Algorithm-dependent basis array size parameters:
  | n_max_pulay                         :       10
  Geometry relaxation not requested: no relaxation will be performed.
  Handling of forces: Unphysical translation and rotation will be removed from forces.
  No accuracy limit for integral partition fn. given. Defaulting to 0.1000E-14.
  No threshold value for u(r) in integrations given. Defaulting to 0.1000E-05.
  No accuracy for occupation numbers given. Defaulting to 0.1000E-07.
  No threshold value for occupation numbers given. Defaulting to 0.0000E+00.
  No accuracy for fermi level given. Defaulting to 0.1000E-19.
  Maximum # of iterations to find E_F not set. Defaulting to  200.
  Will not use alltoall communication since running on < 1024 CPUs.
  Partitioning for Hartree potential was not defined. Using partition_type for integrals.
  | Reporting present value of keyword multip_moments_threshold  :       0.10000000E-09
  | This value may affect high angular momentum components of the Hartree potential in periodic systems.
  No q(lm)/r^(l+1) cutoff set for long-range Hartree potential.
  | Using default value of  0.100000E-09 .
  | Verify using the multipole_threshold keyword.
  Defaulting to new monopole extrapolation.
  Density update method: Loop over occupied states selected for charge density update.
------------------------------------------------------------


------------------------------------------------------------
          Reading geometry description geometry.in.
------------------------------------------------------------
  Input structure read successfully.
  The structure contains       10 atoms,  and a total of         31.000 electrons.

  Input geometry:
  | No unit cell requested.
  | Atomic structure:
  |       Atom                x [A]            y [A]            z [A]
  |    1: Species O             -4.053030         0.065001        -1.525160
  |    2: Species H             -4.566710         0.974813        -1.912820
  |    3: Species H             -3.067820         0.330172        -1.477310
  |    4: Species H             -4.370360        -0.049164        -0.572274
  |    5: Species O             -4.581760        -0.256435         0.939478
  |    6: Species H             -4.349860         0.471090         1.504340
  |    7: Species H             -5.393870        -0.726611         1.228070
  |    8: Species O             -1.645860         0.870179        -1.502250
  |    9: Species H             -1.568890         1.501730        -0.721051
  |   10: Species H             -0.824432         0.282220        -1.377720
  |

  | The smallest distance between any two atoms is         0.94981015 AA.
  |
  | The first atom of this pair is atom number                      5 .
  | The second atom of this pair is atom number                     6 .

  Structure-dependent array size parameters: 
  | Maximum number of distinct radial functions  :       18
  | Maximum number of basis functions            :      222
  | Number of Kohn-Sham states (occupied + empty):       56
------------------------------------------------------------

------------------------------------------------------------
          Preparing all fixed parts of the calculation.
------------------------------------------------------------
  Determining machine precision:
    2.225073858507201E-308
  Setting up grids for atomic and cluster calculations.

  Creating wave function, potential, and density for free atoms.

  Species: H

  List of occupied orbitals and eigenvalues:
    n    l              occ      energy [Ha]    energy [eV]
    1    0           1.0000        -0.241408        -6.5691


  Species: O

  List of occupied orbitals and eigenvalues:
    n    l              occ      energy [Ha]    energy [eV]
    1    0           2.0000       -18.944147      -515.4965
    2    0           2.0000        -0.883529       -24.0421
    2    1           4.0000        -0.330176        -8.9845

  Creating fixed part of basis set: Ionic, confined, hydrogenic.
 
  H                    hydrogenic:
 
  List of hydrogenic basis orbitals: 
    n    l      effective z      eigenvalue [eV]  inner max. [A]     outer max. [A]     outer radius [A]   
    2    0         2.100000       -14.9965           0.193241           1.317192           5.372934
    2    1         3.500000       -41.6672           0.602363           0.602363           4.056010
    1    0         0.850000        -9.8292           0.624864           0.624864           5.372934
    2    1         3.700000       -46.5653           0.573616           0.573616           3.909951
    2    0         1.200000        -4.5995           0.334977           2.228160           5.505921
    3    2         7.000000       -74.0753           0.680692           0.680692           3.769152
 
 
  O                    hydrogenic:
 
  List of hydrogenic basis orbitals: 
    n    l      effective z      eigenvalue [eV]  inner max. [A]     outer max. [A]     outer radius [A]   
    2    1         1.800000       -11.0118           1.178546           1.178546           5.432516
    3    2         7.600000       -87.3182           0.624117           0.624117           3.541422
    3    0         6.400000       -61.9209           0.061166           1.081887           4.306510
    4    3        11.600000      -114.4238           0.731621           0.731621           3.584982
    3    1         6.200000       -58.1113           0.255677           1.030255           4.306510
    3    2         5.600000       -47.4081           0.847222           0.847222           4.413102
    5    4        17.600000      -168.5799           0.749730           0.749730           3.372413
    1    0         0.750000        -7.6499           0.705275           0.705275           5.366508
 

  Adding cutoff potential to free-atom effective potential.
  Creating atomic-like basis functions for current effective potential.

  Species H                   :

  List of atomic basis orbitals and eigenvalues:
    n    l      energy [Ha]    energy [eV]    outer radius [A]
    1    0        -0.241374        -6.5681       5.372934


  Species O                   :

  List of atomic basis orbitals and eigenvalues:
    n    l      energy [Ha]    energy [eV]    outer radius [A]
    1    0       -18.944147      -515.4965       1.415745
    2    0        -0.883529       -24.0421       5.048305
    2    1        -0.330173        -8.9845       5.301302

  Assembling full basis from fixed parts.
  | Species H :   atomic orbital   1 s accepted.
  | Species H :    hydro orbital   2 s accepted.
  | Species H :    hydro orbital   1 s accepted.
  | Species H :    hydro orbital   2 s accepted.
  | Species H :    hydro orbital   2 p accepted.
  | Species H :    hydro orbital   2 p accepted.
  | Species H :    hydro orbital   3 d accepted.
  | Species O :   atomic orbital   1 s accepted.
  | Species O :    hydro orbital   3 s accepted.
  | Species O :   atomic orbital   2 s accepted.
  | Species O :    hydro orbital   1 s accepted.
  | Species O :    hydro orbital   3 p accepted.
  | Species O :   atomic orbital   2 p accepted.
  | Species O :    hydro orbital   2 p accepted.
  | Species O :    hydro orbital   3 d accepted.
  | Species O :    hydro orbital   3 d accepted.
  | Species O :    hydro orbital   4 f accepted.
  | Species O :    hydro orbital   5 g accepted.
 
  Basis size parameters after reduction:
  | Total number of radial functions:       18
  | Total number of basis functions :      222
 
  Testing on-site integration grid accuracy.
  |  Species  Function  <phi|h_atom|phi> (log., in eV)  <phi|h_atom|phi> (rad., in eV)
           1        1                 -6.5683835025                 -6.5684759159
           1        2                 13.3711789951                 13.3708738703
           1        3                 23.6590910787                 23.6532055418
           1        4                 16.2963827186                 16.1870710655 ***
           1        5                 28.7627214838                 28.7627215090
           1        6                 59.5965249172                 59.5965950857
           1        7                 60.2220506392                 60.2220503827
           2        8               -515.4964576505               -515.4964530710
           2        9                 15.3030791347                 15.3030722972
           2       10                -21.7296094581                -21.7296135470
           2       11                 14.2969371730                 14.2969701621
           2       12                 21.0679693190                 21.0679697493
           2       13                 -2.3833606469                 -2.3833613176
           2       14                 13.7067136422                 13.7066766629
           2       15                 45.8013116808                 45.8013116965
           2       16                 52.2309815402                 52.2309831494
           2       17                 85.4120732416                 85.4120732763
           2       18                142.1019167745                142.1019167817
 * Note: Onsite integrals marked "***" above are less accurate than
 * onsite_accuracy_threshold =    0.03000 eV. Usually, this is harmless.
 * When in doubt, tighten the "radial" and/or "radial_multiplier" flags to check.

  Preparing densities etc. for the partition functions (integrals / Hartree potential).

  Preparations completed.
  max(cpu_time)          :      0.169 s.
  Wall clock time (cpu1) :      0.540 s.
------------------------------------------------------------

------------------------------------------------------------
          Begin self-consistency loop: Initialization.

          Date     :  20150727, Time     :  122402.535
------------------------------------------------------------

  Initializing index lists of integration centers etc. from given atomic structure:
  | Number of centers in hartree potential         :        10
  | Number of centers in hartree multipole         :        10
  | Number of centers in electron density summation:        10
  | Number of centers in basis integrals           :        10
  | Number of centers in integrals                 :        10
  Partitioning the integration grid into batches with parallel hashing+maxmin method.
  | Number of batches:     1456
  | Maximal batch size:     200
  | Minimal batch size:      49
  | Average batch size:      89.025
  | Standard deviation of batch sizes:      25.312

  Integration load balanced across     8 MPI tasks.
  Work distribution over tasks is as follows:
  Task     0 has      16271 integration points.
  Task     1 has      16270 integration points.
  Task     2 has      16142 integration points.
  Task     3 has      16112 integration points.
  Task     4 has      16284 integration points.
  Task     5 has      16246 integration points.
  Task     6 has      16133 integration points.
  Task     7 has      16162 integration points.
  Initializing partition tables, free-atom densities, potentials, etc. across the integration grid (initialize_grid_storage).
  | Net number of integration points:   129620
  | of which are non-zero points    :   129133
  Obtaining max. number of non-zero basis functions in each batch (get_n_compute_maxes).
  | Maximal number of non-zero basis functions:      221 in task     0
  | Maximal number of non-zero basis functions:      221 in task     1
  | Maximal number of non-zero basis functions:      221 in task     2
  | Maximal number of non-zero basis functions:      221 in task     3
  | Maximal number of non-zero basis functions:      221 in task     4
  | Maximal number of non-zero basis functions:      221 in task     5
  | Maximal number of non-zero basis functions:      221 in task     6
  | Maximal number of non-zero basis functions:      221 in task     7
  Integrating Hamiltonian matrix: batch-based integration.
  Time summed over all CPUs for integration: real work        3.158 s, elapsed        3.206 s
  Integrating overlap matrix.
  Time summed over all CPUs for integration: real work        1.638 s, elapsed        1.660 s

  Updating Kohn-Sham eigenvalues, eigenvectors, occupation numbers, and Fermi level.
  Solving generalized eigenproblem
  Updating Kohn-Sham eigenvalues and eigenfunctions.
  Transforming overlap matrix and checking for singularities.
  Overlap matrix is nonsingular:
  | Lowest eigenvalue:  0.232435E-03
  Solving real generalised eigenvalue problem by standard LAPACK (fast)
  Determining occupation numbers for Kohn-Sham eigenstates.
  | Chemical potential (Fermi level) in eV                 : -.27217182E+01
  | Error in electron count due to remaining E_F inaccuracy: 0.19472424E-10
  | Maximum occupation number of highest empty state:  0.00E+00

  Writing Kohn-Sham eigenvalues.

  State    Occupation    Eigenvalue [Ha]    Eigenvalue [eV]
      1       2.00000         -19.065168         -518.78961
      2       2.00000         -19.059132         -518.62536
      3       2.00000         -19.042474         -518.17208
      4       2.00000          -1.127210          -30.67296
      5       2.00000          -1.104478          -30.05437
      6       2.00000          -1.081638          -29.43287
      7       2.00000          -0.651810          -17.73665
      8       2.00000          -0.647376          -17.61601
      9       2.00000          -0.610479          -16.61198
     10       2.00000          -0.601720          -16.37364
     11       2.00000          -0.524335          -14.26787
     12       2.00000          -0.504673          -13.73286
     13       2.00000          -0.483543          -13.15788
     14       2.00000          -0.446134          -12.13994
     15       2.00000          -0.435889          -11.86114
     16       1.00000          -0.100021           -2.72172
     17       0.00000          -0.066150           -1.80003
     18       0.00000          -0.061444           -1.67198
     19       0.00000          -0.018481           -0.50288
     20       0.00000           0.003206            0.08724
     21       0.00000           0.033576            0.91364
     22       0.00000           0.055940            1.52220
     23       0.00000           0.064328            1.75046
     24       0.00000           0.082734            2.25131
     25       0.00000           0.100099            2.72384
     26       0.00000           0.105565            2.87256
     27       0.00000           0.110329            3.00222
     28       0.00000           0.119664            3.25623
     29       0.00000           0.136180            3.70565
     30       0.00000           0.145257            3.95266
     31       0.00000           0.154900            4.21503
     32       0.00000           0.176839            4.81202
     33       0.00000           0.212601            5.78516
     34       0.00000           0.221874            6.03749
     35       0.00000           0.228080            6.20637
     36       0.00000           0.254146            6.91567
     37       0.00000           0.281047            7.64768
     38       0.00000           0.296603            8.07099
     39       0.00000           0.348579            9.48532
     40       0.00000           0.358727            9.76147
     41       0.00000           0.373401           10.16075
     42       0.00000           0.388178           10.56287
     43       0.00000           0.396575           10.79135
     44       0.00000           0.406006           11.04797
     45       0.00000           0.428853           11.66968
     46       0.00000           0.436645           11.88172
     47       0.00000           0.468464           12.74757
     48       0.00000           0.507873           13.81994
     49       0.00000           0.531088           14.45165
     50       0.00000           0.559653           15.22893
     51       0.00000           0.599325           16.30847
     52       0.00000           0.617496           16.80292
     53       0.00000           0.669037           18.20542
     54       0.00000           0.713222           19.40776
     55       0.00000           0.732847           19.94179
     56       0.00000           0.774781           21.08287

  Highest occupied state (VBM) at     -2.72171821 eV
  | Occupation number:      1.00000000

  Lowest unoccupied state (CBM) at    -1.80002555 eV
  | Occupation number:      0.00000000

  Overall HOMO-LUMO gap:      0.92169266 eV.
  Calculating total energy contributions from superposition of free atom densities.

  Total energy components:
  | Sum of eigenvalues            :        -130.87214114 Ha       -3561.21215291 eV
  | XC energy correction          :         -27.71154826 Ha        -754.06959479 eV
  | XC potential correction       :          35.42214650 Ha         963.88564825 eV
  | Free-atom electrostatic energy:        -107.12798140 Ha       -2915.10069271 eV
  | Hartree energy correction     :           0.00000000 Ha           0.00000000 eV
  | van der Waals energy corr.    :           0.00000000 Ha           0.00000000 eV
  | Entropy correction            :          -0.00010367 Ha          -0.00282095 eV
  | ---------------------------
  | Total energy                  :        -230.28952430 Ha       -6266.49679216 eV
  | Total energy, T -> 0          :        -230.28962797 Ha       -6266.49961311 eV  <-- do not rely on this value for anything but (periodic) metals
  | Electronic free energy        :        -230.28973164 Ha       -6266.50243405 eV

  Derived energy quantities:
  | Kinetic energy                :         228.21900160 Ha        6210.15500281 eV
  | Electrostatic energy          :        -430.79697765 Ha      -11722.58220017 eV
  | Energy correction for multipole
  | error in Hartree potential    :           0.00000000 Ha           0.00000000 eV
  | Sum of eigenvalues per atom                           :        -356.12121529 eV
  | Total energy (T->0) per atom                          :        -626.64996131 eV  <-- do not rely on this value for anything but (periodic) metals
  | Electronic free energy per atom                       :        -626.65024341 eV
  Initialize hartree_potential_storage
  Max. number of atoms included in rho_multipole:           10

  End scf initialization - timings             :  max(cpu_time)    wall_clock(cpu1)
  | Time for scf. initialization               :        0.879 s           0.880 s
  | Boundary condition initialization          :        0.000 s           0.001 s
  | Integration                                :        0.610 s           0.610 s
  | Solution of K.-S. eqns.                    :        0.074 s           0.074 s
  | Grid partitioning                          :        0.086 s           0.085 s
  | Preloading free-atom quantities on grid    :        0.013 s           0.013 s
  | Free-atom superposition energy             :        0.034 s           0.034 s
  | Total energy evaluation                    :        0.000 s           0.000 s
------------------------------------------------------------

------------------------------------------------------------
          Begin self-consistency iteration #    1

  Date     :  20150727, Time     :  122403.415
------------------------------------------------------------
  Evaluating new KS density.
  Integration grid: deviation in total charge (<rho> - N_e) =   1.949374E-11
  Pulay mixing of updated and previous charge densities.

  Evaluating partitioned Hartree potential by multipole expansion.
  | Analytical far-field extrapolation by fixed multipoles:
  | Hartree multipole sum: apparent total charge =  -0.605796E-06
  Summing up the Hartree potential.
  Time summed over all CPUs for potential: real work        1.148 s, elapsed        1.154 s
  | RMS charge density error from multipole expansion :   0.129420E-02

  Integrating Hamiltonian matrix: batch-based integration.
  Time summed over all CPUs for integration: real work        3.152 s, elapsed        3.197 s

  Updating Kohn-Sham eigenvalues, eigenvectors, occupation numbers, and Fermi level.
  Solving generalized eigenproblem
  Updating Kohn-Sham eigenvalues and eigenfunctions.
  Solving real generalised eigenvalue problem by standard LAPACK (fast)
  Determining occupation numbers for Kohn-Sham eigenstates.
  | Chemical potential (Fermi level) in eV                 : -.25116758E+01
  | Error in electron count due to remaining E_F inaccuracy: -.32192915E-09
  | Maximum occupation number of highest empty state:  0.00E+00

  Writing Kohn-Sham eigenvalues.

  State    Occupation    Eigenvalue [Ha]    Eigenvalue [eV]
      1       2.00000         -19.003613         -517.11462
      2       2.00000         -18.988536         -516.70436
      3       2.00000         -18.974116         -516.31195
      4       2.00000          -1.096103          -29.82649
      5       2.00000          -1.071405          -29.15441
      6       2.00000          -1.048231          -28.52381
      7       2.00000          -0.623795          -16.97431
      8       2.00000          -0.619652          -16.86159
      9       2.00000          -0.583642          -15.88171
     10       2.00000          -0.573613          -15.60880
     11       2.00000          -0.492791          -13.40953
     12       2.00000          -0.471152          -12.82070
     13       2.00000          -0.451066          -12.27412
     14       2.00000          -0.411324          -11.19270
     15       2.00000          -0.400815          -10.90672
     16       1.00000          -0.092302           -2.51168
     17       0.00000          -0.058998           -1.60541
     18       0.00000          -0.054932           -1.49478
     19       0.00000          -0.013103           -0.35655
     20       0.00000           0.008645            0.23523
     21       0.00000           0.040931            1.11378
     22       0.00000           0.060168            1.63726
     23       0.00000           0.069907            1.90226
     24       0.00000           0.090333            2.45808
     25       0.00000           0.105535            2.87174
     26       0.00000           0.111225            3.02660
     27       0.00000           0.116153            3.16069
     28       0.00000           0.129527            3.52460
     29       0.00000           0.143911            3.91602
     30       0.00000           0.161550            4.39600
     31       0.00000           0.165148            4.49390
     32       0.00000           0.183258            4.98672
     33       0.00000           0.219594            5.97547
     34       0.00000           0.229366            6.24136
     35       0.00000           0.234798            6.38918
     36       0.00000           0.259755            7.06829
     37       0.00000           0.287763            7.83043
     38       0.00000           0.301655            8.20844
     39       0.00000           0.355256            9.66701
     40       0.00000           0.365718            9.95169
     41       0.00000           0.380222           10.34637
     42       0.00000           0.395431           10.76021
     43       0.00000           0.404762           11.01413
     44       0.00000           0.411782           11.20517
     45       0.00000           0.435387           11.84749
     46       0.00000           0.443089           12.05707
     47       0.00000           0.475790           12.94690
     48       0.00000           0.516474           14.05396
     49       0.00000           0.538409           14.65086
     50       0.00000           0.568975           15.48260
     51       0.00000           0.608383           16.55494
     52       0.00000           0.627631           17.07870
     53       0.00000           0.678332           18.45837
     54       0.00000           0.721704           19.63857
     55       0.00000           0.742364           20.20076
     56       0.00000           0.783580           21.32229

  Highest occupied state (VBM) at    -10.90672194 eV
  | Occupation number:      2.00000000

  Lowest unoccupied state (CBM) at    -2.51167579 eV
  | Occupation number:      1.00000000

  Overall HOMO-LUMO gap:      8.39504616 eV.

  Total energy components:
  | Sum of eigenvalues            :        -129.71200733 Ha       -3529.64330560 eV
  | XC energy correction          :         -27.83633428 Ha        -757.46519526 eV
  | XC potential correction       :          35.58499481 Ha         968.31697614 eV
  | Free-atom electrostatic energy:        -107.12798140 Ha       -2915.10069271 eV
  | Hartree energy correction     :          -1.13414460 Ha         -30.86164473 eV
  | van der Waals energy corr.    :           0.00000000 Ha           0.00000000 eV
  | Entropy correction            :          -0.00010367 Ha          -0.00282095 eV
  | ---------------------------
  | Total energy                  :        -230.22547280 Ha       -6264.75386216 eV
  | Total energy, T -> 0          :        -230.22557647 Ha       -6264.75668311 eV  <-- do not rely on this value for anything but (periodic) metals
  | Electronic free energy        :        -230.22568014 Ha       -6264.75950406 eV

  Derived energy quantities:
  | Kinetic energy                :         228.98877178 Ha        6231.10151505 eV
  | Electrostatic energy          :        -431.37791030 Ha      -11738.39018194 eV
  | Energy correction for multipole
  | error in Hartree potential    :           0.00032027 Ha           0.00871490 eV
  | Sum of eigenvalues per atom                           :        -352.96433056 eV
  | Total energy (T->0) per atom                          :        -626.47566831 eV  <-- do not rely on this value for anything but (periodic) metals
  | Electronic free energy per atom                       :        -626.47595041 eV

  Self-consistency convergence accuracy:
  | Change of charge density      : 0.4746E+00
  | Change of sum of eigenvalues  : 0.3157E+02 eV
  | Change of total energy        : 0.1743E+01 eV

  End self-consistency iteration #     1       :  max(cpu_time)    wall_clock(cpu1)
  | Time for this iteration                    :        0.830 s           0.830 s
  | Charge density update                      :        0.259 s           0.259 s
  | Density mixing                             :        0.002 s           0.002 s
  | Hartree multipole update                   :        0.004 s           0.004 s
  | Hartree multipole summation                :        0.145 s           0.145 s
  | Integration                                :        0.401 s           0.401 s
  | Solution of K.-S. eqns.                    :        0.018 s           0.018 s
  | Total energy evaluation                    :        0.001 s           0.001 s
------------------------------------------------------------

------------------------------------------------------------
          Begin self-consistency iteration #    2

  Date     :  20150727, Time     :  122404.245
------------------------------------------------------------
  Evaluating new KS density.
  Integration grid: deviation in total charge (<rho> - N_e) =  -3.219220E-10
  Pulay mixing of updated and previous charge densities.

  Evaluating partitioned Hartree potential by multipole expansion.
  | Analytical far-field extrapolation by fixed multipoles:
  | Hartree multipole sum: apparent total charge =  -0.254728E-05
  Summing up the Hartree potential.
  Time summed over all CPUs for potential: real work        1.148 s, elapsed        1.154 s
  | RMS charge density error from multipole expansion :   0.525441E-02

  Integrating Hamiltonian matrix: batch-based integration.
  Time summed over all CPUs for integration: real work        3.153 s, elapsed        3.211 s

  Updating Kohn-Sham eigenvalues, eigenvectors, occupation numbers, and Fermi level.
  Solving generalized eigenproblem
  Updating Kohn-Sham eigenvalues and eigenfunctions.
  Solving real generalised eigenvalue problem by standard LAPACK (fast)
  Determining occupation numbers for Kohn-Sham eigenstates.
  | Chemical potential (Fermi level) in eV                 : -.20408491E+01
  | Error in electron count due to remaining E_F inaccuracy: 0.00000000E+00
  | Maximum occupation number of highest empty state:  0.00E+00

  Highest occupied state (VBM) at     -2.04084908 eV
  | Occupation number:      1.00000000

  Lowest unoccupied state (CBM) at    -2.04084908 eV
  | Occupation number:      1.00000000

  Overall HOMO-LUMO gap:      0.00000000 eV.

  Total energy components:
  | Sum of eigenvalues            :        -126.95998422 Ha       -3454.75694675 eV
  | XC energy correction          :         -28.14857127 Ha        -765.96159587 eV
  | XC potential correction       :          35.99134061 Ha         979.37420805 eV
  | Free-atom electrostatic energy:        -107.12798140 Ha       -2915.10069271 eV
  | Hartree energy correction     :          -3.91033829 Ha        -106.40571864 eV
  | van der Waals energy corr.    :           0.00000000 Ha           0.00000000 eV
  | Entropy correction            :          -0.00010367 Ha          -0.00282095 eV
  | ---------------------------
  | Total energy                  :        -230.15553457 Ha       -6262.85074591 eV
  | Total energy, T -> 0          :        -230.15563824 Ha       -6262.85356686 eV  <-- do not rely on this value for anything but (periodic) metals
  | Electronic free energy        :        -230.15574190 Ha       -6262.85638781 eV

  Derived energy quantities:
  | Kinetic energy                :         230.59451699 Ha        6274.79606533 eV
  | Electrostatic energy          :        -432.60148029 Ha      -11771.68521538 eV
  | Energy correction for multipole
  | error in Hartree potential    :           0.00066174 Ha           0.01800699 eV
  | Sum of eigenvalues per atom                           :        -345.47569467 eV
  | Total energy (T->0) per atom                          :        -626.28535669 eV  <-- do not rely on this value for anything but (periodic) metals
  | Electronic free energy per atom                       :        -626.28563878 eV

  Self-consistency convergence accuracy:
  | Change of charge density      : 0.3611E+00
  | Change of sum of eigenvalues  : 0.7489E+02 eV
  | Change of total energy        : 0.1903E+01 eV

  End self-consistency iteration #     2       :  max(cpu_time)    wall_clock(cpu1)
  | Time for this iteration                    :        0.829 s           0.829 s
  | Charge density update                      :        0.256 s           0.256 s
  | Density mixing                             :        0.003 s           0.003 s
  | Hartree multipole update                   :        0.004 s           0.004 s
  | Hartree multipole summation                :        0.145 s           0.145 s
  | Integration                                :        0.402 s           0.402 s
  | Solution of K.-S. eqns.                    :        0.018 s           0.018 s
  | Total energy evaluation                    :        0.001 s           0.001 s
------------------------------------------------------------

------------------------------------------------------------
          Begin self-consistency iteration #    3

  Date     :  20150727, Time     :  122405.074
------------------------------------------------------------
  Evaluating new KS density.
  Integration grid: deviation in total charge (<rho> - N_e) =   1.065814E-14
  Pulay mixing of updated and previous charge densities.

  Evaluating partitioned Hartree potential by multipole expansion.
  | Analytical far-field extrapolation by fixed multipoles:
  | Hartree multipole sum: apparent total charge =  -0.310682E-05
  Summing up the Hartree potential.
  Time summed over all CPUs for potential: real work        1.147 s, elapsed        1.154 s
  | RMS charge density error from multipole expansion :   0.108353E-01

  Integrating Hamiltonian matrix: batch-based integration.
  Time summed over all CPUs for integration: real work        3.155 s, elapsed        3.218 s

  Updating Kohn-Sham eigenvalues, eigenvectors, occupation numbers, and Fermi level.
  Solving generalized eigenproblem
  Updating Kohn-Sham eigenvalues and eigenfunctions.
  Solving real generalised eigenvalue problem by standard LAPACK (fast)
  Determining occupation numbers for Kohn-Sham eigenstates.
  | Chemical potential (Fermi level) in eV                 : -.20948533E+01
  | Error in electron count due to remaining E_F inaccuracy: -.40760817E-08
  | Maximum occupation number of highest empty state:  0.00E+00

  Highest occupied state (VBM) at     -8.72467461 eV
  | Occupation number:      2.00000000

  Lowest unoccupied state (CBM) at    -2.09485330 eV
  | Occupation number:      1.00000000

  Overall HOMO-LUMO gap:      6.62982132 eV.

  Total energy components:
  | Sum of eigenvalues            :        -127.24485637 Ha       -3462.50871229 eV
  | XC energy correction          :         -28.14093374 Ha        -765.75376825 eV
  | XC potential correction       :          35.97515781 Ha         978.93385152 eV
  | Free-atom electrostatic energy:        -107.12798140 Ha       -2915.10069271 eV
  | Hartree energy correction     :          -3.61746847 Ha         -98.43632559 eV
  | van der Waals energy corr.    :           0.00000000 Ha           0.00000000 eV
  | Entropy correction            :          -0.00010367 Ha          -0.00282095 eV
  | ---------------------------
  | Total energy                  :        -230.15608218 Ha       -6262.86564731 eV
  | Total energy, T -> 0          :        -230.15618585 Ha       -6262.86846825 eV  <-- do not rely on this value for anything but (periodic) metals
  | Electronic free energy        :        -230.15628952 Ha       -6262.87128920 eV

  Derived energy quantities:
  | Kinetic energy                :         229.59108005 Ha        6247.49115711 eV
  | Electrostatic energy          :        -431.60622849 Ha      -11744.60303616 eV
  | Energy correction for multipole
  | error in Hartree potential    :          -0.00192504 Ha          -0.05238303 eV
  | Sum of eigenvalues per atom                           :        -346.25087123 eV
  | Total energy (T->0) per atom                          :        -626.28684683 eV  <-- do not rely on this value for anything but (periodic) metals
  | Electronic free energy per atom                       :        -626.28712892 eV

  Self-consistency convergence accuracy:
  | Change of charge density      : 0.1768E+00
  | Change of sum of eigenvalues  : -.7752E+01 eV
  | Change of total energy        : -.1490E-01 eV

  End self-consistency iteration #     3       :  max(cpu_time)    wall_clock(cpu1)
  | Time for this iteration                    :        0.830 s           0.830 s
  | Charge density update                      :        0.255 s           0.255 s
  | Density mixing                             :        0.004 s           0.004 s
  | Hartree multipole update                   :        0.004 s           0.004 s
  | Hartree multipole summation                :        0.145 s           0.145 s
  | Integration                                :        0.403 s           0.403 s
  | Solution of K.-S. eqns.                    :        0.018 s           0.018 s
  | Total energy evaluation                    :        0.001 s           0.000 s
------------------------------------------------------------

------------------------------------------------------------
          Begin self-consistency iteration #    4

  Date     :  20150727, Time     :  122405.904
------------------------------------------------------------
  Evaluating new KS density.
  Integration grid: deviation in total charge (<rho> - N_e) =  -4.076060E-09
  Pulay mixing of updated and previous charge densities.

  Evaluating partitioned Hartree potential by multipole expansion.
  | Analytical far-field extrapolation by fixed multipoles:
  | Hartree multipole sum: apparent total charge =  -0.375752E-05
  Summing up the Hartree potential.
  Time summed over all CPUs for potential: real work        1.147 s, elapsed        1.154 s
  | RMS charge density error from multipole expansion :   0.138508E-01

  Integrating Hamiltonian matrix: batch-based integration.
  Time summed over all CPUs for integration: real work        3.142 s, elapsed        3.203 s

  Updating Kohn-Sham eigenvalues, eigenvectors, occupation numbers, and Fermi level.
  Solving generalized eigenproblem
  Updating Kohn-Sham eigenvalues and eigenfunctions.
  Solving real generalised eigenvalue problem by standard LAPACK (fast)
  Determining occupation numbers for Kohn-Sham eigenstates.
  | Chemical potential (Fermi level) in eV                 : -.19854711E+01
  | Error in electron count due to remaining E_F inaccuracy: 0.00000000E+00
  | Maximum occupation number of highest empty state:  0.00E+00

  Highest occupied state (VBM) at     -1.98547105 eV
  | Occupation number:      1.00000000

  Lowest unoccupied state (CBM) at    -1.98547105 eV
  | Occupation number:      1.00000000

  Overall HOMO-LUMO gap:      0.00000000 eV.

  Total energy components:
  | Sum of eigenvalues            :        -126.61486680 Ha       -3445.36582394 eV
  | XC energy correction          :         -28.23087529 Ha        -768.20120228 eV
  | XC potential correction       :          36.09019071 Ha         982.06405614 eV
  | Free-atom electrostatic energy:        -107.12798140 Ha       -2915.10069271 eV
  | Hartree energy correction     :          -4.27055569 Ha        -116.20773293 eV
  | van der Waals energy corr.    :           0.00000000 Ha           0.00000000 eV
  | Entropy correction            :          -0.00010367 Ha          -0.00282095 eV
  | ---------------------------
  | Total energy                  :        -230.15408847 Ha       -6262.81139571 eV
  | Total energy, T -> 0          :        -230.15419214 Ha       -6262.81421666 eV  <-- do not rely on this value for anything but (periodic) metals
  | Electronic free energy        :        -230.15429581 Ha       -6262.81703760 eV

  Derived energy quantities:
  | Kinetic energy                :         229.65249047 Ha        6249.16221964 eV
  | Electrostatic energy          :        -431.57570366 Ha      -11743.77241308 eV
  | Energy correction for multipole
  | error in Hartree potential    :          -0.00280581 Ha          -0.07635001 eV
  | Sum of eigenvalues per atom                           :        -344.53658239 eV
  | Total energy (T->0) per atom                          :        -626.28142167 eV  <-- do not rely on this value for anything but (periodic) metals
  | Electronic free energy per atom                       :        -626.28170376 eV

  Self-consistency convergence accuracy:
  | Change of charge density      : 0.7509E-01
  | Change of sum of eigenvalues  : 0.1714E+02 eV
  | Change of total energy        : 0.5425E-01 eV

  End self-consistency iteration #     4       :  max(cpu_time)    wall_clock(cpu1)
  | Time for this iteration                    :        0.829 s           0.828 s
  | Charge density update                      :        0.255 s           0.254 s
  | Density mixing                             :        0.005 s           0.005 s
  | Hartree multipole update                   :        0.004 s           0.004 s
  | Hartree multipole summation                :        0.145 s           0.145 s
  | Integration                                :        0.401 s           0.401 s
  | Solution of K.-S. eqns.                    :        0.018 s           0.018 s
  | Total energy evaluation                    :        0.001 s           0.000 s
------------------------------------------------------------

------------------------------------------------------------
          Begin self-consistency iteration #    5

  Date     :  20150727, Time     :  122406.732
------------------------------------------------------------
  Evaluating new KS density.
  Integration grid: deviation in total charge (<rho> - N_e) =   1.421085E-14
  Pulay mixing of updated and previous charge densities.

  Evaluating partitioned Hartree potential by multipole expansion.
  | Analytical far-field extrapolation by fixed multipoles:
  | Hartree multipole sum: apparent total charge =  -0.373580E-05
  Summing up the Hartree potential.
  Time summed over all CPUs for potential: real work        1.148 s, elapsed        1.157 s
  | RMS charge density error from multipole expansion :   0.137154E-01

  Integrating Hamiltonian matrix: batch-based integration.
  Time summed over all CPUs for integration: real work        3.139 s, elapsed        3.199 s

  Updating Kohn-Sham eigenvalues, eigenvectors, occupation numbers, and Fermi level.
  Solving generalized eigenproblem
  Updating Kohn-Sham eigenvalues and eigenfunctions.
  Solving real generalised eigenvalue problem by standard LAPACK (fast)
  Determining occupation numbers for Kohn-Sham eigenstates.
  | Chemical potential (Fermi level) in eV                 : -.19854890E+01
  | Error in electron count due to remaining E_F inaccuracy: 0.19426594E-09
  | Maximum occupation number of highest empty state:  0.00E+00

  Highest occupied state (VBM) at     -1.98548903 eV
  | Occupation number:      1.00000000

  Lowest unoccupied state (CBM) at    -1.08592286 eV
  | Occupation number:      0.00000000

  Overall HOMO-LUMO gap:      0.89956617 eV.

  Total energy components:
  | Sum of eigenvalues            :        -126.71896846 Ha       -3448.19857409 eV
  | XC energy correction          :         -28.21733479 Ha        -767.83274642 eV
  | XC potential correction       :          36.07256900 Ha         981.58454501 eV
  | Free-atom electrostatic energy:        -107.12798140 Ha       -2915.10069271 eV
  | Hartree energy correction     :          -4.16201446 Ha        -113.25417587 eV
  | van der Waals energy corr.    :           0.00000000 Ha           0.00000000 eV
  | Entropy correction            :          -0.00010367 Ha          -0.00282095 eV
  | ---------------------------
  | Total energy                  :        -230.15373011 Ha       -6262.80164408 eV
  | Total energy, T -> 0          :        -230.15383378 Ha       -6262.80446502 eV  <-- do not rely on this value for anything but (periodic) metals
  | Electronic free energy        :        -230.15393744 Ha       -6262.80728597 eV

  Derived energy quantities:
  | Kinetic energy                :         229.61433589 Ha        6248.12398051 eV
  | Electrostatic energy          :        -431.55073121 Ha      -11743.09287816 eV
  | Energy correction for multipole
  | error in Hartree potential    :          -0.00289615 Ha          -0.07880821 eV
  | Sum of eigenvalues per atom                           :        -344.81985741 eV
  | Total energy (T->0) per atom                          :        -626.28044650 eV  <-- do not rely on this value for anything but (periodic) metals
  | Electronic free energy per atom                       :        -626.28072860 eV

  Self-consistency convergence accuracy:
  | Change of charge density      : 0.1899E-01
  | Change of sum of eigenvalues  : -.2833E+01 eV
  | Change of total energy        : 0.9752E-02 eV

  End self-consistency iteration #     5       :  max(cpu_time)    wall_clock(cpu1)
  | Time for this iteration                    :        0.828 s           0.829 s
  | Charge density update                      :        0.254 s           0.254 s
  | Density mixing                             :        0.006 s           0.007 s
  | Hartree multipole update                   :        0.004 s           0.003 s
  | Hartree multipole summation                :        0.145 s           0.146 s
  | Integration                                :        0.401 s           0.400 s
  | Solution of K.-S. eqns.                    :        0.018 s           0.018 s
  | Total energy evaluation                    :        0.000 s           0.001 s
------------------------------------------------------------

------------------------------------------------------------
          Begin self-consistency iteration #    6

  Date     :  20150727, Time     :  122407.561
------------------------------------------------------------
  Evaluating new KS density.
  Integration grid: deviation in total charge (<rho> - N_e) =   1.942482E-10
  Pulay mixing of updated and previous charge densities.

  Evaluating partitioned Hartree potential by multipole expansion.
  | Analytical far-field extrapolation by fixed multipoles:
  | Hartree multipole sum: apparent total charge =  -0.375746E-05
  Summing up the Hartree potential.
  Time summed over all CPUs for potential: real work        1.147 s, elapsed        1.153 s
  | RMS charge density error from multipole expansion :   0.139909E-01

  Integrating Hamiltonian matrix: batch-based integration.
  Time summed over all CPUs for integration: real work        3.138 s, elapsed        3.189 s

  Updating Kohn-Sham eigenvalues, eigenvectors, occupation numbers, and Fermi level.
  Solving generalized eigenproblem
  Updating Kohn-Sham eigenvalues and eigenfunctions.
  Solving real generalised eigenvalue problem by standard LAPACK (fast)
  Determining occupation numbers for Kohn-Sham eigenstates.
  | Chemical potential (Fermi level) in eV                 : -.19875694E+01
  | Error in electron count due to remaining E_F inaccuracy: 0.13081092E-10
  | Maximum occupation number of highest empty state:  0.00E+00

  Highest occupied state (VBM) at     -1.98756935 eV
  | Occupation number:      1.00000000

  Lowest unoccupied state (CBM) at    -1.08880559 eV
  | Occupation number:      0.00000000

  Overall HOMO-LUMO gap:      0.89876376 eV.

  Total energy components:
  | Sum of eigenvalues            :        -126.70412070 Ha       -3447.79454616 eV
  | XC energy correction          :         -28.22088889 Ha        -767.92945844 eV
  | XC potential correction       :          36.07695237 Ha         981.70382250 eV
  | Free-atom electrostatic energy:        -107.12798140 Ha       -2915.10069271 eV
  | Hartree energy correction     :          -4.17771115 Ha        -113.68130445 eV
  | van der Waals energy corr.    :           0.00000000 Ha           0.00000000 eV
  | Entropy correction            :          -0.00010367 Ha          -0.00282095 eV
  | ---------------------------
  | Total energy                  :        -230.15374978 Ha       -6262.80217926 eV
  | Total energy, T -> 0          :        -230.15385344 Ha       -6262.80500020 eV  <-- do not rely on this value for anything but (periodic) metals
  | Electronic free energy        :        -230.15395711 Ha       -6262.80782115 eV

  Derived energy quantities:
  | Kinetic energy                :         229.61141543 Ha        6248.04451096 eV
  | Electrostatic energy          :        -431.54427632 Ha      -11742.91723177 eV
  | Energy correction for multipole
  | error in Hartree potential    :          -0.00306889 Ha          -0.08350883 eV
  | Sum of eigenvalues per atom                           :        -344.77945462 eV
  | Total energy (T->0) per atom                          :        -626.28050002 eV  <-- do not rely on this value for anything but (periodic) metals
  | Electronic free energy per atom                       :        -626.28078212 eV

  Self-consistency convergence accuracy:
  | Change of charge density      : 0.7839E-02
  | Change of sum of eigenvalues  : 0.4040E+00 eV
  | Change of total energy        : -.5352E-03 eV

  End self-consistency iteration #     6       :  max(cpu_time)    wall_clock(cpu1)
  | Time for this iteration                    :        0.828 s           0.827 s
  | Charge density update                      :        0.254 s           0.254 s
  | Density mixing                             :        0.007 s           0.007 s
  | Hartree multipole update                   :        0.004 s           0.004 s
  | Hartree multipole summation                :        0.145 s           0.144 s
  | Integration                                :        0.399 s           0.400 s
  | Solution of K.-S. eqns.                    :        0.018 s           0.018 s
  | Total energy evaluation                    :        0.000 s           0.000 s
------------------------------------------------------------

------------------------------------------------------------
          Begin self-consistency iteration #    7

  Date     :  20150727, Time     :  122408.388
------------------------------------------------------------
  Evaluating new KS density.
  Integration grid: deviation in total charge (<rho> - N_e) =   1.307399E-11
  Pulay mixing of updated and previous charge densities.

  Evaluating partitioned Hartree potential by multipole expansion.
  | Analytical far-field extrapolation by fixed multipoles:
  | Hartree multipole sum: apparent total charge =  -0.373678E-05
  Summing up the Hartree potential.
  Time summed over all CPUs for potential: real work        1.147 s, elapsed        1.153 s
  | RMS charge density error from multipole expansion :   0.140024E-01

  Integrating Hamiltonian matrix: batch-based integration.
  Time summed over all CPUs for integration: real work        3.141 s, elapsed        3.192 s

  Updating Kohn-Sham eigenvalues, eigenvectors, occupation numbers, and Fermi level.
  Solving generalized eigenproblem
  Updating Kohn-Sham eigenvalues and eigenfunctions.
  Solving real generalised eigenvalue problem by standard LAPACK (fast)
  Determining occupation numbers for Kohn-Sham eigenstates.
  | Chemical potential (Fermi level) in eV                 : -.19976185E+01
  | Error in electron count due to remaining E_F inaccuracy: 0.80036955E-09
  | Maximum occupation number of highest empty state:  0.00E+00

  Highest occupied state (VBM) at     -1.99761854 eV
  | Occupation number:      1.00000000

  Lowest unoccupied state (CBM) at    -1.09652469 eV
  | Occupation number:      0.00000000

  Overall HOMO-LUMO gap:      0.90109385 eV.

  Total energy components:
  | Sum of eigenvalues            :        -126.72177819 Ha       -3448.27503073 eV
  | XC energy correction          :         -28.21909192 Ha        -767.88056034 eV
  | XC potential correction       :          36.07454989 Ha         981.63844777 eV
  | Free-atom electrostatic energy:        -107.12798140 Ha       -2915.10069271 eV
  | Hartree energy correction     :          -4.15944098 Ha        -113.18414785 eV
  | van der Waals energy corr.    :           0.00000000 Ha           0.00000000 eV
  | Entropy correction            :          -0.00010367 Ha          -0.00282095 eV
  | ---------------------------
  | Total energy                  :        -230.15374259 Ha       -6262.80198385 eV
  | Total energy, T -> 0          :        -230.15384626 Ha       -6262.80480480 eV  <-- do not rely on this value for anything but (periodic) metals
  | Electronic free energy        :        -230.15394993 Ha       -6262.80762575 eV

  Derived energy quantities:
  | Kinetic energy                :         229.62352278 Ha        6248.37396848 eV
  | Electrostatic energy          :        -431.55817345 Ha      -11743.29539199 eV
  | Energy correction for multipole
  | error in Hartree potential    :          -0.00315184 Ha          -0.08576589 eV
  | Sum of eigenvalues per atom                           :        -344.82750307 eV
  | Total energy (T->0) per atom                          :        -626.28048048 eV  <-- do not rely on this value for anything but (periodic) metals
  | Electronic free energy per atom                       :        -626.28076257 eV

  Self-consistency convergence accuracy:
  | Change of charge density      : 0.4981E-02
  | Change of sum of eigenvalues  : -.4805E+00 eV
  | Change of total energy        : 0.1954E-03 eV

  End self-consistency iteration #     7       :  max(cpu_time)    wall_clock(cpu1)
  | Time for this iteration                    :        0.828 s           0.829 s
  | Charge density update                      :        0.253 s           0.254 s
  | Density mixing                             :        0.007 s           0.008 s
  | Hartree multipole update                   :        0.003 s           0.004 s
  | Hartree multipole summation                :        0.145 s           0.144 s
  | Integration                                :        0.400 s           0.400 s
  | Solution of K.-S. eqns.                    :        0.018 s           0.018 s
  | Total energy evaluation                    :        0.000 s           0.001 s
------------------------------------------------------------

------------------------------------------------------------
          Begin self-consistency iteration #    8

  Date     :  20150727, Time     :  122409.217
------------------------------------------------------------
  Evaluating new KS density.
  Integration grid: deviation in total charge (<rho> - N_e) =   8.003589E-10
  Pulay mixing of updated and previous charge densities.

  Evaluating partitioned Hartree potential by multipole expansion.
  | Analytical far-field extrapolation by fixed multipoles:
  | Hartree multipole sum: apparent total charge =  -0.370913E-05
  Summing up the Hartree potential.
  Time summed over all CPUs for potential: real work        1.147 s, elapsed        1.153 s
  | RMS charge density error from multipole expansion :   0.140471E-01

  Integrating Hamiltonian matrix: batch-based integration.
  Time summed over all CPUs for integration: real work        3.133 s, elapsed        3.187 s

  Updating Kohn-Sham eigenvalues, eigenvectors, occupation numbers, and Fermi level.
  Solving generalized eigenproblem
  Updating Kohn-Sham eigenvalues and eigenfunctions.
  Solving real generalised eigenvalue problem by standard LAPACK (fast)
  Determining occupation numbers for Kohn-Sham eigenstates.
  | Chemical potential (Fermi level) in eV                 : -.20112907E+01
  | Error in electron count due to remaining E_F inaccuracy: -.15553780E-10
  | Maximum occupation number of highest empty state:  0.00E+00

  Highest occupied state (VBM) at     -8.25264923 eV
  | Occupation number:      2.00000000

  Lowest unoccupied state (CBM) at    -2.01129068 eV
  | Occupation number:      1.00000000

  Overall HOMO-LUMO gap:      6.24135855 eV.

  Total energy components:
  | Sum of eigenvalues            :        -126.75606559 Ha       -3449.20803835 eV
  | XC energy correction          :         -28.21579847 Ha        -767.79094109 eV
  | XC potential correction       :          36.07014032 Ha         981.51845732 eV
  | Free-atom electrostatic energy:        -107.12798140 Ha       -2915.10069271 eV
  | Hartree energy correction     :          -4.12403492 Ha        -112.22069981 eV
  | van der Waals energy corr.    :           0.00000000 Ha           0.00000000 eV
  | Entropy correction            :          -0.00010367 Ha          -0.00282095 eV
  | ---------------------------
  | Total energy                  :        -230.15374005 Ha       -6262.80191464 eV
  | Total energy, T -> 0          :        -230.15384372 Ha       -6262.80473559 eV  <-- do not rely on this value for anything but (periodic) metals
  | Electronic free energy        :        -230.15394739 Ha       -6262.80755654 eV

  Derived energy quantities:
  | Kinetic energy                :         229.63021315 Ha        6248.55602298 eV
  | Electrostatic energy          :        -431.56815474 Ha      -11743.56699653 eV
  | Energy correction for multipole
  | error in Hartree potential    :          -0.00328945 Ha          -0.08951042 eV
  | Sum of eigenvalues per atom                           :        -344.92080384 eV
  | Total energy (T->0) per atom                          :        -626.28047356 eV  <-- do not rely on this value for anything but (periodic) metals
  | Electronic free energy per atom                       :        -626.28075565 eV

  Self-consistency convergence accuracy:
  | Change of charge density      : 0.3101E-02
  | Change of sum of eigenvalues  : -.9330E+00 eV
  | Change of total energy        : 0.6921E-04 eV

  End self-consistency iteration #     8       :  max(cpu_time)    wall_clock(cpu1)
  | Time for this iteration                    :        0.830 s           0.830 s
  | Charge density update                      :        0.254 s           0.255 s
  | Density mixing                             :        0.009 s           0.008 s
  | Hartree multipole update                   :        0.004 s           0.003 s
  | Hartree multipole summation                :        0.145 s           0.145 s
  | Integration                                :        0.399 s           0.399 s
  | Solution of K.-S. eqns.                    :        0.018 s           0.018 s
  | Total energy evaluation                    :        0.001 s           0.001 s
------------------------------------------------------------

------------------------------------------------------------
          Begin self-consistency iteration #    9

  Date     :  20150727, Time     :  122410.047
------------------------------------------------------------
  Evaluating new KS density.
  Integration grid: deviation in total charge (<rho> - N_e) =  -1.555378E-11
  Pulay mixing of updated and previous charge densities.

  Evaluating partitioned Hartree potential by multipole expansion.
  | Analytical far-field extrapolation by fixed multipoles:
  | Hartree multipole sum: apparent total charge =  -0.369986E-05
  Summing up the Hartree potential.
  Time summed over all CPUs for potential: real work        1.147 s, elapsed        1.153 s
  | RMS charge density error from multipole expansion :   0.140363E-01

  Integrating Hamiltonian matrix: batch-based integration.
  Time summed over all CPUs for integration: real work        3.136 s, elapsed        3.186 s

  Updating Kohn-Sham eigenvalues, eigenvectors, occupation numbers, and Fermi level.
  Solving generalized eigenproblem
  Updating Kohn-Sham eigenvalues and eigenfunctions.
  Solving real generalised eigenvalue problem by standard LAPACK (fast)
  Determining occupation numbers for Kohn-Sham eigenstates.
  | Chemical potential (Fermi level) in eV                 : -.20132210E+01
  | Error in electron count due to remaining E_F inaccuracy: -.56000005E-09
  | Maximum occupation number of highest empty state:  0.00E+00

  Highest occupied state (VBM) at     -8.25813535 eV
  | Occupation number:      2.00000000

  Lowest unoccupied state (CBM) at    -2.01322099 eV
  | Occupation number:      1.00000000

  Overall HOMO-LUMO gap:      6.24491435 eV.

  Total energy components:
  | Sum of eigenvalues            :        -126.76018081 Ha       -3449.32001942 eV
  | XC energy correction          :         -28.21539843 Ha        -767.78005552 eV
  | XC potential correction       :          36.06961723 Ha         981.50422308 eV
  | Free-atom electrostatic energy:        -107.12798140 Ha       -2915.10069271 eV
  | Hartree energy correction     :          -4.11979618 Ha        -112.10535788 eV
  | van der Waals energy corr.    :           0.00000000 Ha           0.00000000 eV
  | Entropy correction            :          -0.00010367 Ha          -0.00282095 eV
  | ---------------------------
  | Total energy                  :        -230.15373960 Ha       -6262.80190245 eV
  | Total energy, T -> 0          :        -230.15384327 Ha       -6262.80472340 eV  <-- do not rely on this value for anything but (periodic) metals
  | Electronic free energy        :        -230.15394694 Ha       -6262.80754435 eV

  Derived energy quantities:
  | Kinetic energy                :         229.63652408 Ha        6248.72775205 eV
  | Electrostatic energy          :        -431.57486525 Ha      -11743.74959898 eV
  | Energy correction for multipole
  | error in Hartree potential    :          -0.00330725 Ha          -0.08999496 eV
  | Sum of eigenvalues per atom                           :        -344.93200194 eV
  | Total energy (T->0) per atom                          :        -626.28047234 eV  <-- do not rely on this value for anything but (periodic) metals
  | Electronic free energy per atom                       :        -626.28075443 eV

  Self-consistency convergence accuracy:
  | Change of charge density      : 0.8676E-03
  | Change of sum of eigenvalues  : -.1120E+00 eV
  | Change of total energy        : 0.1219E-04 eV

  End self-consistency iteration #     9       :  max(cpu_time)    wall_clock(cpu1)
  | Time for this iteration                    :        0.831 s           0.831 s
  | Charge density update                      :        0.255 s           0.255 s
  | Density mixing                             :        0.009 s           0.009 s
  | Hartree multipole update                   :        0.004 s           0.004 s
  | Hartree multipole summation                :        0.145 s           0.145 s
  | Integration                                :        0.399 s           0.399 s
  | Solution of K.-S. eqns.                    :        0.018 s           0.018 s
  | Total energy evaluation                    :        0.001 s           0.001 s
------------------------------------------------------------

------------------------------------------------------------
          Begin self-consistency iteration #   10

  Date     :  20150727, Time     :  122410.878
------------------------------------------------------------
  Evaluating new KS density.
  Integration grid: deviation in total charge (<rho> - N_e) =  -5.599787E-10
  Pulay mixing of updated and previous charge densities.

  Evaluating partitioned Hartree potential by multipole expansion.
  | Analytical far-field extrapolation by fixed multipoles:
  | Hartree multipole sum: apparent total charge =  -0.368807E-05
  Summing up the Hartree potential.
  Time summed over all CPUs for potential: real work        1.147 s, elapsed        1.154 s
  | RMS charge density error from multipole expansion :   0.140469E-01

  Integrating Hamiltonian matrix: batch-based integration.
  Time summed over all CPUs for integration: real work        3.127 s, elapsed        3.182 s

  Updating Kohn-Sham eigenvalues, eigenvectors, occupation numbers, and Fermi level.
  Solving generalized eigenproblem
  Updating Kohn-Sham eigenvalues and eigenfunctions.
  Solving real generalised eigenvalue problem by standard LAPACK (fast)
  Determining occupation numbers for Kohn-Sham eigenstates.
  | Chemical potential (Fermi level) in eV                 : -.20143382E+01
  | Error in electron count due to remaining E_F inaccuracy: -.72908080E-09
  | Maximum occupation number of highest empty state:  0.00E+00

  Highest occupied state (VBM) at     -8.25597624 eV
  | Occupation number:      2.00000000

  Lowest unoccupied state (CBM) at    -2.01433823 eV
  | Occupation number:      1.00000000

  Overall HOMO-LUMO gap:      6.24163801 eV.

  Total energy components:
  | Sum of eigenvalues            :        -126.76173242 Ha       -3449.36224071 eV
  | XC energy correction          :         -28.21542909 Ha        -767.78088993 eV
  | XC potential correction       :          36.06964117 Ha         981.50487468 eV
  | Free-atom electrostatic energy:        -107.12798140 Ha       -2915.10069271 eV
  | Hartree energy correction     :          -4.11823815 Ha        -112.06296183 eV
  | van der Waals energy corr.    :           0.00000000 Ha           0.00000000 eV
  | Entropy correction            :          -0.00010367 Ha          -0.00282095 eV
  | ---------------------------
  | Total energy                  :        -230.15373990 Ha       -6262.80191049 eV
  | Total energy, T -> 0          :        -230.15384357 Ha       -6262.80473144 eV  <-- do not rely on this value for anything but (periodic) metals
  | Electronic free energy        :        -230.15394723 Ha       -6262.80755239 eV

  Derived energy quantities:
  | Kinetic energy                :         229.63685626 Ha        6248.73679097 eV
[...]
  | Atom     7: H
  |   Hirshfeld charge        :      0.11808127
  |   Free atom volume        :     10.44207651
  |   Hirshfeld volume        :     11.16526063
  |   Hirshfeld dipole vector :     -0.05823131      -0.05147172       0.01327558
  |   Hirshfeld dipole moment :      0.07884456
  |   Hirshfeld second moments:      0.01499686       0.02552660      -0.00728150
  |                                  0.02552660       0.03291173       0.01525015
  |                                 -0.00728150       0.01525015       0.04004900
  ----------------------------------------------------------------------
  | Atom     8: O
  |   Hirshfeld charge        :     -0.22822090
  |   Free atom volume        :     23.95238533
  |   Hirshfeld volume        :     23.43935091
  |   Hirshfeld dipole vector :     -0.00794887      -0.03102810       0.02942888
  |   Hirshfeld dipole moment :      0.04349697
  |   Hirshfeld second moments:      0.03743026      -0.01160614       0.00494360
  |                                 -0.01160614       0.01128508       0.04743258
  |                                  0.00494360       0.04743258      -0.02524902
  ----------------------------------------------------------------------
  | Atom     9: H
  |   Hirshfeld charge        :      0.07331960
  |   Free atom volume        :     10.44207651
  |   Hirshfeld volume        :     13.51530658
  |   Hirshfeld dipole vector :      0.00829830       0.01381274       0.02513290
  |   Hirshfeld dipole moment :      0.02985492
  |   Hirshfeld second moments:      0.00652550       0.01568586      -0.00352682
  |                                  0.01568586      -0.02248801       0.00375818
  |                                 -0.00352682       0.00375818      -0.04954411
  ----------------------------------------------------------------------
  | Atom    10: H
  |   Hirshfeld charge        :      0.10704394
  |   Free atom volume        :     10.44207651
  |   Hirshfeld volume        :     11.38196941
  |   Hirshfeld dipole vector :      0.05046725      -0.04732226      -0.00701531
  |   Hirshfeld dipole moment :      0.06953815
  |   Hirshfeld second moments:      0.02733430      -0.00098742      -0.00558398
  |                                 -0.00098742       0.02960025       0.02574923
  |                                 -0.00558398       0.02574923       0.00913819
  ----------------------------------------------------------------------


  Total energy components:
  | Sum of eigenvalues            :        -126.75946205 Ha       -3449.30046072 eV
  | XC energy correction          :         -28.21566117 Ha        -767.78720506 eV
  | XC potential correction       :          36.06994831 Ha         981.51323233 eV
  | Free-atom electrostatic energy:        -107.12798140 Ha       -2915.10069271 eV
  | Hartree energy correction     :          -4.12058365 Ha        -112.12678598 eV
  | van der Waals energy corr.    :          -0.00103492 Ha          -0.02816155 eV
  | Entropy correction            :          -0.00010367 Ha          -0.00282095 eV
  | ---------------------------
  | Total energy                  :        -230.15477488 Ha       -6262.83007370 eV
  | Total energy, T -> 0          :        -230.15487855 Ha       -6262.83289464 eV  <-- do not rely on this value for anything but (periodic) metals
  | Electronic free energy        :        -230.15498221 Ha       -6262.83571559 eV

  Derived energy quantities:
  | Kinetic energy                :         229.63692725 Ha        6248.73872289 eV
  | Electrostatic energy          :        -431.57500604 Ha      -11743.75342998 eV
  | Energy correction for multipole
  | error in Hartree potential    :          -0.00332465 Ha          -0.09046844 eV
  | Sum of eigenvalues per atom                           :        -344.93004607 eV
  | Total energy (T->0) per atom                          :        -626.28328946 eV  <-- do not rely on this value for anything but (periodic) metals
  | Electronic free energy per atom                       :        -626.28357156 eV

  atomic forces [eV/Ang]:
  -----------------------
  atom #    1
   Hellmann-Feynman + Multipole  : -.290405E+01 -.719062E+01 -.770317E+01
   Pulay + GGA                   : 0.148423E+01 0.858904E+01 0.604622E+01
   Van der Waals               : -.429131E-02 -.892090E-03 -.803006E-02
   ----------------------------------------------------------------
   Total forces(   1)            : -.142411E+01 0.139752E+01 -.166498E+01
  atom #    2
   Hellmann-Feynman + Multipole  : 0.850292E+00 -.161697E+01 0.671137E+00
   Pulay + GGA                   : -.658570E-01 0.140915E+00 -.187802E-01
   Van der Waals               : -.217418E-02 0.135499E-02 -.603152E-02
   ----------------------------------------------------------------
   Total forces(   2)            : 0.782261E+00 -.147470E+01 0.646326E+00
  atom #    3
   Hellmann-Feynman + Multipole  : 0.591985E+00 0.325558E-01 -.975366E-01
   Pulay + GGA                   : 0.838274E-01 0.959129E-02 0.195259E-01
   Van der Waals               : 0.124258E-02 -.899031E-04 -.354112E-02
   ----------------------------------------------------------------
   Total forces(   3)            : 0.677055E+00 0.420572E-01 -.815518E-01
  atom #    4
   Hellmann-Feynman + Multipole  : -.112353E+00 -.671514E-01 0.672173E+00
   Pulay + GGA                   : -.397943E-01 -.102022E-01 0.745153E-01
   Van der Waals               : -.395092E-02 -.211938E-02 0.665332E-03
   ----------------------------------------------------------------
   Total forces(   4)            : -.156098E+00 -.794730E-01 0.747354E+00
  atom #    5
   Hellmann-Feynman + Multipole  : 0.747777E+01 -.562231E+01 -.794239E+01
   Pulay + GGA                   : -.769312E+01 0.410166E+01 0.680935E+01
   Van der Waals               : 0.317635E-02 0.457153E-03 0.176047E-02
   ----------------------------------------------------------------
   Total forces(   5)            : -.212169E+00 -.152019E+01 -.113128E+01
  atom #    6
   Hellmann-Feynman + Multipole  : -.772197E-01 0.923899E+00 0.100068E+01
   Pulay + GGA                   : 0.439729E-01 0.109701E+00 0.105403E+00
   Van der Waals               : 0.650504E-03 0.299365E-03 0.605512E-02
   ----------------------------------------------------------------
   Total forces(   6)            : -.325964E-01 0.103390E+01 0.111214E+01
  atom #    7
   Hellmann-Feynman + Multipole  : 0.244751E+00 0.487461E+00 0.262887E+00
   Pulay + GGA                   : -.120101E+00 -.687937E-01 0.493116E-01
   Van der Waals               : 0.328668E-04 -.610298E-03 0.263561E-02
   ----------------------------------------------------------------
   Total forces(   7)            : 0.124682E+00 0.418057E+00 0.314834E+00
  atom #    8
   Hellmann-Feynman + Multipole  : -.461345E+01 0.200583E+01 -.979189E+01
   Pulay + GGA                   : 0.612440E+01 -.200537E+01 0.107579E+02
   Van der Waals               : 0.109985E-02 0.312364E-04 0.282823E-02
   ----------------------------------------------------------------
   Total forces(   8)            : 0.151205E+01 0.484417E-03 0.968814E+00
  atom #    9
   Hellmann-Feynman + Multipole  : -.134595E+00 -.504111E+00 -.795299E+00
   Pulay + GGA                   : 0.820514E-02 0.939838E-01 0.122084E+00
   Van der Waals               : 0.377098E-02 0.147351E-02 0.215491E-02
   ----------------------------------------------------------------
   Total forces(   9)            : -.122618E+00 -.408654E+00 -.671060E+00
  atom #   10
   Hellmann-Feynman + Multipole  : -.127090E+01 0.672498E+00 -.266528E+00
   Pulay + GGA                   : 0.121981E+00 -.807445E-01 0.188717E-01
   Van der Waals               : 0.443288E-03 0.954203E-04 0.150302E-02
   ----------------------------------------------------------------
   Total forces(  10)            : -.114848E+01 0.591849E+00 -.246153E+00
  Timings for vdw_correction_hirshfeld (Tkatchenko-Scheffler 2009):
  | CPU time:        2.117 s, Wall clock time:        2.117 s.
  Removing unitary transformations (pure translations, rotations) from forces on atoms.
  Atomic forces before filtering:
  | Net force on center of mass :  -.166003E-04 0.848887E-03 -.555661E-02 eV/A
  | Net torque on center of mass:  0.188781E-01 -.139573E-02 -.318081E-03 eV
  Atomic forces after filtering:
  | Net force on center of mass :  0.178406E-15 -.267609E-15 0.178406E-15 eV/A
  | Net torque on center of mass:  -.377634E-15 0.377634E-15 0.113290E-14 eV
 
  Energy and forces in a compact form:
  | Total energy uncorrected      :         -0.626283007369669E+04 eV
  | Total energy corrected        :         -0.626283289464461E+04 eV  <-- do not rely on this value for anything but (periodic) metals
  | Electronic free energy        :         -0.626283571559253E+04 eV
  Total atomic forces (unitary forces cleaned) [eV/Ang]:
  |   1         -0.142375035538771E+01          0.139579442139395E+01         -0.166417692028266E+01
  |   2          0.782220564391962E+00         -0.147722034013064E+01          0.645799096782029E+00
  |   3          0.677264260752855E+00          0.409158479874937E-01         -0.808948870085755E-01
  |   4         -0.155880140518597E+00         -0.800914783399072E-01          0.748242615031590E+00
  |   5         -0.212162094736372E+00         -0.151889721663073E+01         -0.113015909941446E+01
  |   6         -0.330961671554985E-01          0.103607777937432E+01          0.111233619700358E+01
  |   7          0.124876859915314E+00          0.419310009105614E+00          0.316413610471796E+00
  |   8          0.151198205789496E+01          0.643263383174869E-04          0.969049390074236E+00
  |   9         -0.123191857390756E+00         -0.407985125837005E+00         -0.671655374993231E+00
  |  10         -0.114826312776616E+01          0.592031776738592E+00         -0.244954627664306E+00
 
  ------------------------------------ 
  Start decomposition of the XC Energy 
  ------------------------------------ 
  Hartree-Fock part   :          0.000000000 Ha              0.000000000 eV
  ------------------------------------ 
  X Energy            :        -27.212025224 Ha           -740.476881401 eV
  C Energy GGA        :         -1.003635947 Ha            -27.310323662 eV
  Total XC Energy     :        -28.215661172 Ha           -767.787205063 eV
  LDA X and C from self-consistent density 
  X Energy LDA        :        -24.531779140 Ha           -667.543674657 eV
  C Energy LDA        :         -2.017931259 Ha            -54.910703379 eV
  ------------------------------------ 
  End decomposition of the XC Energy 
  ------------------------------------ 
  Performing Hirshfeld analysis of fragment charges and moments.
  ----------------------------------------------------------------------
  | Atom     1: O
  |   Hirshfeld charge        :     -0.14359684
  |   Free atom volume        :     23.95238533
  |   Hirshfeld volume        :     22.78042903
  |   Hirshfeld dipole vector :      0.01917507       0.01262592       0.02770146
  |   Hirshfeld dipole moment :      0.03597872
  |   Hirshfeld second moments:      0.05676502      -0.00476209      -0.01097734
  |                                 -0.00476209       0.01950953      -0.02731568
  |                                 -0.01097734      -0.02731568       0.04050119
  ----------------------------------------------------------------------
  | Atom     2: H
  |   Hirshfeld charge        :      0.03734791
  |   Free atom volume        :     10.44207651
  |   Hirshfeld volume        :     16.86060704
  |   Hirshfeld dipole vector :      0.03343326      -0.05191454       0.00927409
  |   Hirshfeld dipole moment :      0.06244126
  |   Hirshfeld second moments:     -0.07040534       0.03132481      -0.01115211
  |                                  0.03132481      -0.13618705      -0.00057869
  |                                 -0.01115211      -0.00057869      -0.06645849
  ----------------------------------------------------------------------
  | Atom     3: H
  |   Hirshfeld charge        :      0.09145995
  |   Free atom volume        :     10.44207651
  |   Hirshfeld volume        :     10.75203855
  |   Hirshfeld dipole vector :      0.02059515      -0.00735685       0.00551425
  |   Hirshfeld dipole moment :      0.02255417
  |   Hirshfeld second moments:      0.01070947      -0.00798525      -0.00642881
  |                                 -0.00798525       0.02370326       0.00528336
  |                                 -0.00642881       0.00528336       0.03910869
  ----------------------------------------------------------------------
  | Atom     4: H
  |   Hirshfeld charge        :      0.08990722
  |   Free atom volume        :     10.44207651
  |   Hirshfeld volume        :     11.03414392
  |   Hirshfeld dipole vector :     -0.00264581      -0.01571376       0.01861893
  |   Hirshfeld dipole moment :      0.02450687
  |   Hirshfeld second moments:      0.03344757       0.01910741       0.00046868
  |                                  0.01910741       0.02062754       0.00049574
  |                                  0.00046868       0.00049574       0.00538041
  ----------------------------------------------------------------------
  | Atom     5: O
  |   Hirshfeld charge        :     -0.23364249
  |   Free atom volume        :     23.95238533
  |   Hirshfeld volume        :     23.04438867
  |   Hirshfeld dipole vector :     -0.02610808       0.01373271      -0.00531306
  |   Hirshfeld dipole moment :      0.02997412
  |   Hirshfeld second moments:      0.00314363       0.05644230      -0.01722911
  |                                  0.05644230       0.01288953       0.02063626
  |                                 -0.01722911       0.02063626       0.04244999
  ----------------------------------------------------------------------
  | Atom     6: H
  |   Hirshfeld charge        :      0.08833016
  |   Free atom volume        :     10.44207651
  |   Hirshfeld volume        :     13.16514234
  |   Hirshfeld dipole vector :      0.01098943       0.02802070       0.03577447
  |   Hirshfeld dipole moment :      0.04675190
  |   Hirshfeld second moments:     -0.01459833       0.02184868      -0.01993160
  |                                  0.02184868      -0.03602766       0.00844010
  |                                 -0.01993160       0.00844010       0.01688639
  ----------------------------------------------------------------------
  | Atom     7: H
  |   Hirshfeld charge        :      0.11808127
  |   Free atom volume        :     10.44207651
  |   Hirshfeld volume        :     11.16526063
  |   Hirshfeld dipole vector :     -0.05823131      -0.05147172       0.01327558
  |   Hirshfeld dipole moment :      0.07884456
  |   Hirshfeld second moments:      0.01499686       0.02552660      -0.00728150
  |                                  0.02552660       0.03291173       0.01525015
  |                                 -0.00728150       0.01525015       0.04004900
  ----------------------------------------------------------------------
  | Atom     8: O
  |   Hirshfeld charge        :     -0.22822090
  |   Free atom volume        :     23.95238533
  |   Hirshfeld volume        :     23.43935091
  |   Hirshfeld dipole vector :     -0.00794887      -0.03102810       0.02942888
  |   Hirshfeld dipole moment :      0.04349697
  |   Hirshfeld second moments:      0.03743026      -0.01160614       0.00494360
  |                                 -0.01160614       0.01128508       0.04743258
  |                                  0.00494360       0.04743258      -0.02524902
  ----------------------------------------------------------------------
  | Atom     9: H
  |   Hirshfeld charge        :      0.07331960
  |   Free atom volume        :     10.44207651
  |   Hirshfeld volume        :     13.51530658
  |   Hirshfeld dipole vector :      0.00829830       0.01381274       0.02513290
  |   Hirshfeld dipole moment :      0.02985492
  |   Hirshfeld second moments:      0.00652550       0.01568586      -0.00352682
  |                                  0.01568586      -0.02248801       0.00375818
  |                                 -0.00352682       0.00375818      -0.04954411
  ----------------------------------------------------------------------
  | Atom    10: H
  |   Hirshfeld charge        :      0.10704394
  |   Free atom volume        :     10.44207651
  |   Hirshfeld volume        :     11.38196941
  |   Hirshfeld dipole vector :      0.05046725      -0.04732226      -0.00701531
  |   Hirshfeld dipole moment :      0.06953815
  |   Hirshfeld second moments:      0.02733430      -0.00098742      -0.00558398
  |                                 -0.00098742       0.02960025       0.02574923
  |                                 -0.00558398       0.02574923       0.00913819
  ----------------------------------------------------------------------


------------------------------------------------------------------------------
  Final output of selected total energy values:

  The following output summarizes some interesting total energy values
  at the end of a run (AFTER all relaxation, molecular dynamics, etc.).

  | Total energy of the DFT / Hartree-Fock s.c.f. calculation      :          -6262.830073697 eV
  | Final zero-broadening corrected energy (caution - metals only) :          -6262.832894645 eV
  | For reference only, the value of 1 Hartree used in FHI-aims is :             27.211384500 eV

  Before relying on these values, please be sure to understand exactly which
  total energy value is referred to by a given number. Different objects may
  all carry the same name 'total energy'. Definitions:

  Total energy of the DFT / Hartree-Fock s.c.f. calculation:
  | Note that this energy does not include ANY quantities calculated after the
  | s.c.f. cycle, in particular not ANY RPA, MP2, etc. many-body perturbation terms.

  Final zero-broadening corrected energy:
  | For metallic systems only, a broadening of the occupation numbers at the Fermi
  | level can be extrapolated back to zero broadening by an electron-gas inspired
  | formula. For all systems that are not real metals, this value can be
  | meaningless and should be avoided.

------------------------------------------------------------------------------

------------------------------------------------------------
          Leaving FHI-aims.
          Date     :  20150727, Time     :  122418.291

          Computational steps:
          | Number of self-consistency cycles          :           16

          Detailed time accounting                     :  max(cpu_time)    wall_clock(cpu1)
          | Total time                                 :       16.335 s          16.367 s
          | Preparation time                           :        0.169 s           0.540 s
          | Grid partitioning                          :        0.086 s           0.085 s
          | Preloading free-atom quantities on grid    :        0.013 s           0.013 s
          | Free-atom superposition energy             :        0.034 s           0.034 s
          | Total time for integrations                :        7.006 s           7.003 s
          | Total time for solution of K.-S. equations :        0.362 s           0.362 s
          | Total time for density & force components  :        5.117 s           5.119 s
          | Total time for mixing                      :        0.129 s           0.130 s
          | Total time for Hartree multipole update    :        0.060 s           0.062 s
          | Total time for Hartree multipole sum       :        2.798 s           2.797 s
          | Total time for total energy evaluation     :        0.009 s           0.011 s
          | Total time for scaled ZORA corrections     :        0.000 s           0.000 s
          | Total time for TS (2009) vdW correction    :        0.024 s           0.025 s

          Have a nice day.
------------------------------------------------------------
