  MPI-parallelism will be employed.
------------------------------------------------------------
          Invoking FHI-aims ...
          Version 081213
          Compiled on 2013/08/29 at 17:41:06 on host generoso.

          When using FHI-aims, please cite the following reference:

          Volker Blum, Ralf Gehrke, Felix Hanke, Paula Havu,
          Ville Havu, Xinguo Ren, Karsten Reuter, and Matthias Scheffler,
          'Ab Initio Molecular Simulations with Numeric Atom-Centered Orbitals: FHI-aims',
          Computer Physics Communications 180, 2175-2196 (2009)

          For any questions about FHI-aims, please visit the aimsclub website
          with its forums and wiki. Contributions to both the forums and the
          wiki are warmly encouraged - they are for you, and everyone is welcome there.

------------------------------------------------------------

  Date     :  20150727, Time     :  120113.399
  Time zero on CPU 1             :   0.419930000000000E-01  s.
  Internal wall clock time zero  :           207230473.399  s.

  Using        8 parallel tasks.
  Task        0 on host gen59 reporting.
  Task        1 on host gen59 reporting.
  Task        2 on host gen59 reporting.
  Task        3 on host gen59 reporting.
  Task        4 on host gen59 reporting.
  Task        5 on host gen59 reporting.
  Task        6 on host gen59 reporting.
  Task        7 on host gen59 reporting.

  Performing system and environment tests:
  | Environment variable OMP_NUM_THREADS correctly set to 1.
  | Checking for scalapack...
  | No scalapack compiled in.

  Obtaining array dimensions for all initial allocations:
  
  -----------------------------------------------------------------------
  Parsing control.in (first pass over file, find array dimensions only).
  The contents of control.in will be repeated verbatim below
  unless switched off by setting 'verbatim_writeout .false.' .
  in the first line of control.in .
  -----------------------------------------------------------------------
  
  #########################################################################################
  #
  #  Volker Blum, FHI 2008 : Test run input file control.in
  #
  #########################################################################################
  #
  #  Physical model
  #
    xc                 rpbe
    spin               none
    relativistic       atomic_zora scalar
    charge             0.
   vdw_correction_hirshfeld
  #
  #  SCF convergence
  #
    occupation_type    gaussian 0.01
    mixer              pulay
      n_max_pulay        10
      charge_mix_param   0.1
    sc_accuracy_rho    5E-5
    sc_accuracy_eev    5E-3
    sc_accuracy_etot   5E-6
    sc_iter_limit      3000
  #
  #  Eigenvalue solver
  #
    KS_method          lapack
      empty_states       8
      basis_threshold    0.e-5
  #
  #  Efficiency
  #
  #   all previous settings are now default, except stratmann still
  #   undecided. Continue to handle stratmann with care, if at all.
  #
  #  partition_type stratmann
    partition_type rho_r2
  #  hartree_partition_type stratmann
  #
  #  Oprions for large clusters (100's of atoms: memory saving / better scaling)
  #
  # for periodic systems:
  #
    density_update_method orbital
    packed_matrix_format none
  #  k_grid 6 6 6
  #  output k_eigenvalue 1
  #  distributed_spline_storage .true.
  #
  #  Relaxation
  #
  #  relax_geometry   bfgs 5.e-3
    sc_accuracy_forces 5.E-4
    final_forces_cleaned .true.
  #
  #  Output options
  #
  #  output mulliken
    output Hirshfeld
  #  output dipole
  
  #harmonic_length_scale 0.001
  
  ################################################################################
  #
  #  FHI-aims code project
  #  VB, Fritz-Haber Institut, 2007
  #
  #  Suggested "safe" defaults for H atom (to be pasted into control.in file)
  #  Basis constructed for a non-relativistic H2 molecule using the
  #  PW-LDA functional.
  #
  ################################################################################
    species        H
  #     global species definitions
      nucleus             1
      cut_pot             4.0  2.0  1.0
      cut_free_atom       finite 8.0
      logarithmic         0.00010000 100.00  1.0123
      basis_dep_cutoff    1d-4  # 1d-4 is safe default - please check 5d-4 if you wish!
      radial_base         24 7.0
      radial_multiplier   2
      angular_grids       specified
        division   0.2783  110
        division   0.3822  194
        division   0.5626  302
  #      division   0.5922  434
  #      division   0.6227  590
  #      division   0.7206  770
        outer_grid  302
      l_hartree           4
  ################################################################################
  #
  #  Definition of "minimal" basis
  #
  ################################################################################
  #     valence basis states
      valence      1  s   1.
  #     ion occupancy
      ion_occ      1  s   0.5
  ################################################################################
  #
  #  Suggested additional basis functions. For production calculations,
  #  uncomment them one after another (the most important basis functions are
  #  listed first).
  #
  ################################################################################
  #  "First tier" - improvements: -1014.90 meV to -62.69 meV
       hydro 2 s 2.1
       hydro 2 p 3.5
  #  "Second tier" - improvements: -12.89 meV to -1.83 meV
       hydro 1 s 0.85
       hydro 2 p 3.7
       hydro 2 s 1.2
       hydro 3 d 7
  #  "Third tier" - improvements: -0.25 meV to -0.12 meV
  #     hydro 4 f 11.2
  #     hydro 3 p 4.8
  #     hydro 4 d 9
  #     hydro 3 s 3.2
  
  ################################################################################
  #
  #  FHI-aims code project
  #  VB, Fritz-Haber Institut, 2007
  #
  #  Suggested "safe" defaults for O atom (to be pasted into control.in file)
  #  All values have been tested for a non-relativistic, non-spinpolarized O2
  #  molecule using the PW-LDA functional. Validity for PBE is expected.
  #
  #  Constructed for dimers: 1.0 A, 1.208 A, 1.5 A, 2.0 A, 3.0 A
  #
  ################################################################################
    species        O
  #     global species definitions
      nucleus             8
      mass                15.9994
      l_hartree           4
      cut_pot             4.0  2.0  1.0
      cut_free_atom       finite 8.0
      basis_dep_cutoff    1d-4  # 1d-4 is safe default - please check 5d-4 if you wish!
      logarithmic         0.00010000 100.00  1.0123
      radial_base         36 7.0
      radial_multiplier   2
       angular_grids specified
        division   0.4087  110
        division   0.5181  194
        division   0.6184  302
  #      division   0.7315  434
  #      division   0.7934  590
  #      division   0.9656  770
  #      division   1.4041  974
  #      outer_grid 974
        outer_grid 302
  ################################################################################
  #
  #  Definition of "minimal" basis
  #
  ################################################################################
  #     valence basis states
      valence      2  s   2.
      valence      2  p   4.
  #     ion occupancy
      ion_occ      2  s   1.
      ion_occ      2  p   3.
  ################################################################################
  #
  #  Suggested additional basis functions. For production calculations,
  #  uncomment them one after another (the most important basis functions are
  #  listed first).
  #
  ################################################################################
  #  "First tier" - improvements: -699.05 meV to -159.38 meV
       hydro 2 p 1.8
       hydro 3 d 7.6
       hydro 3 s 6.4
  #  "Second tier" - improvements: -49.91 meV to -5.39 meV
       hydro 4 f 11.6
       hydro 3 p 6.2
       hydro 3 d 5.6
       hydro 5 g 17.6
       hydro 1 s 0.75
  #  "Third tier" - improvements: -2.83 meV to -0.50 meV
  #     ionic 2 p auto
  #     hydro 4 f 10.8
  #     hydro 4 d 4.7
  #     hydro 2 s 6.8
  #  "Fourth tier" - improvements: -0.40 meV to -0.12 meV
  #     hydro 3 p 5
  #     hydro 3 s 3.3
  #     hydro 5 g 15.6
  #     hydro 4 f 17.6
  #     hydro 4 d 14
  # Further basis functions - -0.08 meV and below
  #     hydro 3 s 2.1
  #     hydro 4 d 11.6
  #     hydro 3 p 16
  #     hydro 2 s 17.2
  
  
  -----------------------------------------------------------------------
  Completed first pass over input file control.in .
  -----------------------------------------------------------------------
  
  
  -----------------------------------------------------------------------
  Parsing geometry.in (first pass over file, find array dimensions only).
  The contents of geometry.in will be repeated verbatim below
  unless switched off by setting 'verbatim_writeout .false.' .
  in the first line of geometry.in .
  -----------------------------------------------------------------------
  
  atom      -4.053030000      0.065001000     -1.525160000  O
  atom      -4.566710000      0.974813000     -1.912820000  H
  atom      -3.067820000      0.330172000     -1.477310000  H
  atom      -4.370360000     -0.049164000     -0.572274000  H
  atom      -4.581760000     -0.256435000      0.939478000  O
  atom      -4.349860000      0.471090000      1.504340000  H
  atom      -5.393870000     -0.726611000      1.228070000  H
  atom      -5.293160000      2.192130000     -2.328800000  O
  atom      -4.829300000      2.988660000     -1.973850000  H
  atom      -5.428570000      2.328640000     -3.235170000  H
  atom      -3.818880000      2.024990000      2.187990000  O
  atom      -3.690880000      1.961360000      3.202150000  H
  atom      -4.546490000      2.751300000      2.045370000  H
  atom      -1.975360000      2.858040000      0.453140000  O
  atom      -1.223550000      3.375850000      0.786238000  H
  atom      -2.537520000      2.567960000      1.156120000  H
  atom      -5.628340000      3.730740000      1.385610000  O
  atom      -6.090650000      4.418470000      1.860350000  H
  atom      -5.158540000      4.200260000      0.615875000  H
  
  -----------------------------------------------------------------------
  Completed first pass over input file geometry.in .
  -----------------------------------------------------------------------
  
 
  Basic array size parameters: 
  | Number of species                 :        2
  | Number of atoms                   :       19
  | Max. basis fn. angular momentum   :        4
  | Max. atomic/ionic basis occupied n:        2
  | Max. number of basis fn. types    :        2
  | Max. radial fns per species/type  :        8
  | Max. logarithmic grid size        :     1301
  | Max. radial integration grid size :       73
  | Max. angular integration grid size:      302
  | Max. angular grid division number :        8
  | Radial grid for Hartree potential :     1301
  | Number of spin channels           :        1

------------------------------------------------------------
          Reading file control.in.
------------------------------------------------------------
  XC: Using RPBE gradient-corrected functionals.
  Spin treatment: No spin polarisation.
  Scalar relativistic treatment of kinetic energy: on-site free-atom approximation to ZORA.
  Charge =   0.000000E+00: Neutral system requested explicitly.
  Using non-empirical van der Waals correction (Hirshfeld partitioning):
  Occupation type: Gaussian broadening, width =   0.100000E-01 eV.
  Using pulay charge density mixing.
  Pulay mixing - number of memorized iterations:   10
  Charge density mixing - mixing parameter:     0.1000
  Convergence accuracy of self-consistent charge density: 0.5000E-04
  Convergence accuracy of sum of eigenvalues: 0.5000E-02
  Convergence accuracy of total energy: 0.5000E-05
  Maximum number of s.-c. iterations  :  3000
  Kohn-Sham eigenvalues and eigenfunctions calculated by lapack diagonalisation (D&C).
  Number of empty states per atom:        8
  Threshold for basis singularities: 0.0000E+00
  Partition function in integrals calculations: rho / r^2
 Using packed matrix format           0
  Convergence accuracy of forces: 0.5000E-03
  Cleaning forces before final output.
  Hirshfeld charge analysis will be performed.
 
  Reading configuration options for species H                   .
  | Found nuclear charge :   1.0000
  | Found cutoff potl. onset [A], width [A], scale factor :    4.00000    2.00000    1.00000
  | Found cutoff specification for free atom: Cutoff potential begins at    8.00000 A.
  | Found logarithmic grid data [bohr] : 0.1000E-03 0.1000E+03 0.1012E+01
  | Threshold for basis-dependent cutoff potential is   0.100000E-03
  | Found data for basic radial integration grid :    24 points, outermost radius =    7.000 A
  | Found multiplier for basic radial grid :   2
  | Found angular grid specification: user-specified.
  | Specified grid contains     4 separate shells.
  | Check grid settings after all constraints further below.
  | Found l_max for Hartree potential  :   4
  | Found free-atom valence shell :  1 s   1.000
  | No ionic wave fns used. Skipping ion_occ.
  | Found hydrogenic basis function :  2 s   2.100
  | Found hydrogenic basis function :  2 p   3.500
  | Found hydrogenic basis function :  1 s   0.850
  | Found hydrogenic basis function :  2 p   3.700
  | Found hydrogenic basis function :  2 s   1.200
  | Found hydrogenic basis function :  3 d   7.000
  Species H                   : Missing cutoff potential type.
  Defaulting to exp(1/x)/(1-x)^2 type cutoff potential.
  Species H : On-site basis accuracy parameter (for Gram-Schmidt orthonormalisation) not specified.
  Using default value basis_acc =  0.1000000E-03.
  Species H                   : Using default innermost maximum threshold i_radial=  2 for radial functions.
  Species H                   : Basic radial grid will be enhanced according to radial_multiplier =   2, to contain    49 grid points.
 
  Reading configuration options for species O                   .
  | Found nuclear charge :   8.0000
  | Found atomic mass :    15.9994000000000      amu
  | Found l_max for Hartree potential  :   4
  | Found cutoff potl. onset [A], width [A], scale factor :    4.00000    2.00000    1.00000
  | Found cutoff specification for free atom: Cutoff potential begins at    8.00000 A.
  | Threshold for basis-dependent cutoff potential is   0.100000E-03
  | Found logarithmic grid data [bohr] : 0.1000E-03 0.1000E+03 0.1012E+01
  | Found data for basic radial integration grid :    36 points, outermost radius =    7.000 A
  | Found multiplier for basic radial grid :   2
  | Found angular grid specification: user-specified.
  | Specified grid contains     4 separate shells.
  | Check grid settings after all constraints further below.
  | Found free-atom valence shell :  2 s   2.000
  | Found free-atom valence shell :  2 p   4.000
  | No ionic wave fns used. Skipping ion_occ.
  | No ionic wave fns used. Skipping ion_occ.
  | Found hydrogenic basis function :  2 p   1.800
  | Found hydrogenic basis function :  3 d   7.600
  | Found hydrogenic basis function :  3 s   6.400
  | Found hydrogenic basis function :  4 f  11.600
  | Found hydrogenic basis function :  3 p   6.200
  | Found hydrogenic basis function :  3 d   5.600
  | Found hydrogenic basis function :  5 g  17.600
  | Found hydrogenic basis function :  1 s   0.750
  Species O                   : Missing cutoff potential type.
  Defaulting to exp(1/x)/(1-x)^2 type cutoff potential.
  Species O : On-site basis accuracy parameter (for Gram-Schmidt orthonormalisation) not specified.
  Using default value basis_acc =  0.1000000E-03.
  Species O                   : Using default innermost maximum threshold i_radial=  2 for radial functions.
  Species O                   : Basic radial grid will be enhanced according to radial_multiplier =   2, to contain    73 grid points.
 
  Finished reading input file 'control.in'. Consistency checks are next.
 
  Target number of points in a grid batch is not set. Defaulting to  100
  Method for grid partitioning is not set. Defaulting to parallel hash+maxmin partitioning.
  Batch size limit is not set. Defaulting to    200
  By default, will store active basis functions for each batch.
  If in need of memory, prune_basis_once .false. can be used to disable this option.
  communication_type for Hartree potential was not specified.
  Defaulting to calc_hartree .
  Pulay mixer: Number of initial linear mixing iterations not set.
  Defaulting to    0 iterations.
  Work space size for distributed Hartree potential not set.
  Defaulting to   0.200000E+03 MB.
  Algorithm-dependent basis array size parameters:
  | n_max_pulay                         :       10
  Geometry relaxation not requested: no relaxation will be performed.
  Handling of forces: Unphysical translation and rotation will be removed from forces.
  No accuracy limit for integral partition fn. given. Defaulting to 0.1000E-14.
  No threshold value for u(r) in integrations given. Defaulting to 0.1000E-05.
  No accuracy for occupation numbers given. Defaulting to 0.1000E-07.
  No threshold value for occupation numbers given. Defaulting to 0.0000E+00.
  No accuracy for fermi level given. Defaulting to 0.1000E-19.
  Maximum # of iterations to find E_F not set. Defaulting to  200.
  Will not use alltoall communication since running on < 1024 CPUs.
  Partitioning for Hartree potential was not defined. Using partition_type for integrals.
  | Reporting present value of keyword multip_moments_threshold  :       0.10000000E-09
  | This value may affect high angular momentum components of the Hartree potential in periodic systems.
  No q(lm)/r^(l+1) cutoff set for long-range Hartree potential.
  | Using default value of  0.100000E-09 .
  | Verify using the multipole_threshold keyword.
  Defaulting to new monopole extrapolation.
  Density update method: Loop over occupied states selected for charge density update.
------------------------------------------------------------


------------------------------------------------------------
          Reading geometry description geometry.in.
------------------------------------------------------------
  Input structure read successfully.
  The structure contains       19 atoms,  and a total of         61.000 electrons.

  Input geometry:
  | No unit cell requested.
  | Atomic structure:
  |       Atom                x [A]            y [A]            z [A]
  |    1: Species O             -4.053030         0.065001        -1.525160
  |    2: Species H             -4.566710         0.974813        -1.912820
  |    3: Species H             -3.067820         0.330172        -1.477310
  |    4: Species H             -4.370360        -0.049164        -0.572274
  |    5: Species O             -4.581760        -0.256435         0.939478
  |    6: Species H             -4.349860         0.471090         1.504340
  |    7: Species H             -5.393870        -0.726611         1.228070
  |    8: Species O             -5.293160         2.192130        -2.328800
  |    9: Species H             -4.829300         2.988660        -1.973850
  |   10: Species H             -5.428570         2.328640        -3.235170
  |   11: Species O             -3.818880         2.024990         2.187990
  |   12: Species H             -3.690880         1.961360         3.202150
  |   13: Species H             -4.546490         2.751300         2.045370
  |   14: Species O             -1.975360         2.858040         0.453140
  |   15: Species H             -1.223550         3.375850         0.786238
  |   16: Species H             -2.537520         2.567960         1.156120
  |   17: Species O             -5.628340         3.730740         1.385610
  |   18: Species H             -6.090650         4.418470         1.860350
  |   19: Species H             -5.158540         4.200260         0.615875
  |

  | The smallest distance between any two atoms is         0.92654057 AA.
  |
  | The first atom of this pair is atom number                      8 .
  | The second atom of this pair is atom number                    10 .

  Structure-dependent array size parameters: 
  | Maximum number of distinct radial functions  :       18
  | Maximum number of basis functions            :      429
  | Number of Kohn-Sham states (occupied + empty):      107
------------------------------------------------------------

------------------------------------------------------------
          Preparing all fixed parts of the calculation.
------------------------------------------------------------
  Determining machine precision:
    2.225073858507201E-308
  Setting up grids for atomic and cluster calculations.

  Creating wave function, potential, and density for free atoms.

  Species: H

  List of occupied orbitals and eigenvalues:
    n    l              occ      energy [Ha]    energy [eV]
    1    0           1.0000        -0.241408        -6.5691


  Species: O

  List of occupied orbitals and eigenvalues:
    n    l              occ      energy [Ha]    energy [eV]
    1    0           2.0000       -18.944147      -515.4965
    2    0           2.0000        -0.883529       -24.0421
    2    1           4.0000        -0.330176        -8.9845

  Creating fixed part of basis set: Ionic, confined, hydrogenic.
 
  H                    hydrogenic:
 
  List of hydrogenic basis orbitals: 
    n    l      effective z      eigenvalue [eV]  inner max. [A]     outer max. [A]     outer radius [A]   
    2    0         2.100000       -14.9965           0.193241           1.317192           5.372934
    2    1         3.500000       -41.6672           0.602363           0.602363           4.056010
    1    0         0.850000        -9.8292           0.624864           0.624864           5.372934
    2    1         3.700000       -46.5653           0.573616           0.573616           3.909951
    2    0         1.200000        -4.5995           0.334977           2.228160           5.505921
    3    2         7.000000       -74.0753           0.680692           0.680692           3.769152
 
 
  O                    hydrogenic:
 
  List of hydrogenic basis orbitals: 
    n    l      effective z      eigenvalue [eV]  inner max. [A]     outer max. [A]     outer radius [A]   
    2    1         1.800000       -11.0118           1.178546           1.178546           5.432516
    3    2         7.600000       -87.3182           0.624117           0.624117           3.541422
    3    0         6.400000       -61.9209           0.061166           1.081887           4.306510
    4    3        11.600000      -114.4238           0.731621           0.731621           3.584982
    3    1         6.200000       -58.1113           0.255677           1.030255           4.306510
    3    2         5.600000       -47.4081           0.847222           0.847222           4.413102
    5    4        17.600000      -168.5799           0.749730           0.749730           3.372413
    1    0         0.750000        -7.6499           0.705275           0.705275           5.366508
 

  Adding cutoff potential to free-atom effective potential.
  Creating atomic-like basis functions for current effective potential.

  Species H                   :

  List of atomic basis orbitals and eigenvalues:
    n    l      energy [Ha]    energy [eV]    outer radius [A]
    1    0        -0.241374        -6.5681       5.372934


  Species O                   :

  List of atomic basis orbitals and eigenvalues:
    n    l      energy [Ha]    energy [eV]    outer radius [A]
    1    0       -18.944147      -515.4965       1.415745
    2    0        -0.883529       -24.0421       5.048305
    2    1        -0.330173        -8.9845       5.301302

  Assembling full basis from fixed parts.
  | Species H :   atomic orbital   1 s accepted.
  | Species H :    hydro orbital   2 s accepted.
  | Species H :    hydro orbital   1 s accepted.
  | Species H :    hydro orbital   2 s accepted.
  | Species H :    hydro orbital   2 p accepted.
  | Species H :    hydro orbital   2 p accepted.
  | Species H :    hydro orbital   3 d accepted.
  | Species O :   atomic orbital   1 s accepted.
  | Species O :    hydro orbital   3 s accepted.
  | Species O :   atomic orbital   2 s accepted.
  | Species O :    hydro orbital   1 s accepted.
  | Species O :    hydro orbital   3 p accepted.
  | Species O :   atomic orbital   2 p accepted.
  | Species O :    hydro orbital   2 p accepted.
  | Species O :    hydro orbital   3 d accepted.
  | Species O :    hydro orbital   3 d accepted.
  | Species O :    hydro orbital   4 f accepted.
  | Species O :    hydro orbital   5 g accepted.
 
  Basis size parameters after reduction:
  | Total number of radial functions:       18
  | Total number of basis functions :      429
 
  Testing on-site integration grid accuracy.
  |  Species  Function  <phi|h_atom|phi> (log., in eV)  <phi|h_atom|phi> (rad., in eV)
           1        1                 -6.5683835025                 -6.5684759159
           1        2                 13.3711789951                 13.3708738703
           1        3                 23.6590910787                 23.6532055418
           1        4                 16.2963827186                 16.1870710655 ***
           1        5                 28.7627214838                 28.7627215090
           1        6                 59.5965249172                 59.5965950857
           1        7                 60.2220506392                 60.2220503827
           2        8               -515.4964576505               -515.4964530710
           2        9                 15.3030791347                 15.3030722972
           2       10                -21.7296094581                -21.7296135470
           2       11                 14.2969371730                 14.2969701621
           2       12                 21.0679693190                 21.0679697493
           2       13                 -2.3833606469                 -2.3833613176
           2       14                 13.7067136422                 13.7066766629
           2       15                 45.8013116808                 45.8013116965
           2       16                 52.2309815402                 52.2309831494
           2       17                 85.4120732416                 85.4120732763
           2       18                142.1019167745                142.1019167817
 * Note: Onsite integrals marked "***" above are less accurate than
 * onsite_accuracy_threshold =    0.03000 eV. Usually, this is harmless.
 * When in doubt, tighten the "radial" and/or "radial_multiplier" flags to check.

  Preparing densities etc. for the partition functions (integrals / Hartree potential).

  Preparations completed.
  max(cpu_time)          :      0.170 s.
  Wall clock time (cpu1) :      0.489 s.
------------------------------------------------------------

------------------------------------------------------------
          Begin self-consistency loop: Initialization.

          Date     :  20150727, Time     :  120113.902
------------------------------------------------------------

  Initializing index lists of integration centers etc. from given atomic structure:
  | Number of centers in hartree potential         :        19
  | Number of centers in hartree multipole         :        19
  | Number of centers in electron density summation:        19
  | Number of centers in basis integrals           :        19
  | Number of centers in integrals                 :        19
  Partitioning the integration grid into batches with parallel hashing+maxmin method.
  | Number of batches:     2551
  | Maximal batch size:     165
  | Minimal batch size:      51
  | Average batch size:      97.078
  | Standard deviation of batch sizes:      29.350

  Integration load balanced across     8 MPI tasks.
  Work distribution over tasks is as follows:
  Task     0 has      30933 integration points.
  Task     1 has      30958 integration points.
  Task     2 has      30982 integration points.
  Task     3 has      30998 integration points.
  Task     4 has      30958 integration points.
  Task     5 has      30933 integration points.
  Task     6 has      30912 integration points.
  Task     7 has      30972 integration points.
  Initializing partition tables, free-atom densities, potentials, etc. across the integration grid (initialize_grid_storage).
  | Net number of integration points:   247646
  | of which are non-zero points    :   247082
  Obtaining max. number of non-zero basis functions in each batch (get_n_compute_maxes).
  | Maximal number of non-zero basis functions:      425 in task     0
  | Maximal number of non-zero basis functions:      425 in task     1
  | Maximal number of non-zero basis functions:      425 in task     2
  | Maximal number of non-zero basis functions:      425 in task     3
  | Maximal number of non-zero basis functions:      424 in task     4
  | Maximal number of non-zero basis functions:      424 in task     5
  | Maximal number of non-zero basis functions:      424 in task     6
  | Maximal number of non-zero basis functions:      424 in task     7
  Integrating Hamiltonian matrix: batch-based integration.
  Time summed over all CPUs for integration: real work       12.187 s, elapsed       12.358 s
  Integrating overlap matrix.
  Time summed over all CPUs for integration: real work        6.693 s, elapsed        6.755 s

  Updating Kohn-Sham eigenvalues, eigenvectors, occupation numbers, and Fermi level.
  Solving generalized eigenproblem
  Updating Kohn-Sham eigenvalues and eigenfunctions.
  Transforming overlap matrix and checking for singularities.
  Overlap matrix is nonsingular:
  | Lowest eigenvalue:  0.190156E-03
  Solving real generalised eigenvalue problem by standard LAPACK (fast)
  Determining occupation numbers for Kohn-Sham eigenstates.
  | Chemical potential (Fermi level) in eV                 : -.27920634E+01
  | Error in electron count due to remaining E_F inaccuracy: -.25753906E-08
  | Maximum occupation number of highest empty state:  0.00E+00

  Writing Kohn-Sham eigenvalues.

  State    Occupation    Eigenvalue [Ha]    Eigenvalue [eV]
      1       2.00000         -19.065138         -518.78881
      2       2.00000         -19.064863         -518.78130
      3       2.00000         -19.059288         -518.62962
      4       2.00000         -19.054661         -518.50372
      5       2.00000         -19.050556         -518.39202
      6       2.00000         -19.036174         -518.00065
      7       2.00000          -1.130157          -30.75314
      8       2.00000          -1.116791          -30.38942
      9       2.00000          -1.106469          -30.10855
     10       2.00000          -1.103644          -30.03167
     11       2.00000          -1.098887          -29.90224
     12       2.00000          -1.068221          -29.06776
     13       2.00000          -0.655394          -17.83417
     14       2.00000          -0.651754          -17.73513
     15       2.00000          -0.650999          -17.71458
     16       2.00000          -0.640997          -17.44243
     17       2.00000          -0.629148          -17.11999
     18       2.00000          -0.620558          -16.88624
     19       2.00000          -0.605113          -16.46595
     20       2.00000          -0.534823          -14.55327
     21       2.00000          -0.525056          -14.28751
     22       2.00000          -0.508361          -13.83321
     23       2.00000          -0.504604          -13.73096
     24       2.00000          -0.490550          -13.34854
     25       2.00000          -0.483090          -13.14555
     26       2.00000          -0.452717          -12.31905
     27       2.00000          -0.446783          -12.15757
     28       2.00000          -0.440181          -11.97793
     29       2.00000          -0.438658          -11.93649
     30       2.00000          -0.431165          -11.73261
     31       1.00000          -0.102606           -2.79206
     32       0.00000          -0.071157           -1.93628
     33       0.00000          -0.068713           -1.86977
     34       0.00000          -0.050122           -1.36388
     35       0.00000          -0.039344           -1.07060
     36       0.00000          -0.032395           -0.88152
     37       0.00000          -0.012173           -0.33125
     38       0.00000           0.023088            0.62827
     39       0.00000           0.028213            0.76771
     40       0.00000           0.036346            0.98902
     41       0.00000           0.045044            1.22572
     42       0.00000           0.057053            1.55250
     43       0.00000           0.063141            1.71816
     44       0.00000           0.067392            1.83382
     45       0.00000           0.079328            2.15863
     46       0.00000           0.084458            2.29821
     47       0.00000           0.093043            2.53183
     48       0.00000           0.099488            2.70721
     49       0.00000           0.107143            2.91551
     50       0.00000           0.108438            2.95075
     51       0.00000           0.113918            3.09988
     52       0.00000           0.116765            3.17733
     53       0.00000           0.120189            3.27051
     54       0.00000           0.133844            3.64208
     55       0.00000           0.140165            3.81408
     56       0.00000           0.149460            4.06702
     57       0.00000           0.152288            4.14398
     58       0.00000           0.157226            4.27834
     59       0.00000           0.164475            4.47559
     60       0.00000           0.176503            4.80288
     61       0.00000           0.186110            5.06431
     62       0.00000           0.193835            5.27451
     63       0.00000           0.209716            5.70666
     64       0.00000           0.228604            6.22063
     65       0.00000           0.238053            6.47776
     66       0.00000           0.249628            6.79272
     67       0.00000           0.251988            6.85694
     68       0.00000           0.262106            7.13226
     69       0.00000           0.280298            7.62731
     70       0.00000           0.289258            7.87110
     71       0.00000           0.300806            8.18535
     72       0.00000           0.318038            8.65426
     73       0.00000           0.323052            8.79070
     74       0.00000           0.330741            8.99993
     75       0.00000           0.345779            9.40914
     76       0.00000           0.349453            9.50911
     77       0.00000           0.374176           10.18185
     78       0.00000           0.385162           10.48078
     79       0.00000           0.388726           10.57777
     80       0.00000           0.396746           10.79601
     81       0.00000           0.409435           11.14129
     82       0.00000           0.423852           11.53360
     83       0.00000           0.432953           11.78125
     84       0.00000           0.439272           11.95321
     85       0.00000           0.452453           12.31187
     86       0.00000           0.457431           12.44734
     87       0.00000           0.470906           12.81400
     88       0.00000           0.472104           12.84661
     89       0.00000           0.495142           13.47351
     90       0.00000           0.510759           13.89845
     91       0.00000           0.513470           13.97223
     92       0.00000           0.536788           14.60674
     93       0.00000           0.539464           14.67957
     94       0.00000           0.552705           15.03986
     95       0.00000           0.571247           15.54443
     96       0.00000           0.579510           15.76926
     97       0.00000           0.603633           16.42568
     98       0.00000           0.630594           17.15935
     99       0.00000           0.631495           17.18385
    100       0.00000           0.675689           18.38644
    101       0.00000           0.706401           19.22214
    102       0.00000           0.740701           20.15550
    103       0.00000           0.752266           20.47020
    104       0.00000           0.762545           20.74990
    105       0.00000           0.769189           20.93070
    106       0.00000           0.787543           21.43015
    107       0.00000           0.796378           21.67055

  Highest occupied state (VBM) at    -11.73260987 eV
  | Occupation number:      2.00000000

  Lowest unoccupied state (CBM) at    -2.79206344 eV
  | Occupation number:      1.00000000

  Overall HOMO-LUMO gap:      8.94054643 eV.
  Calculating total energy contributions from superposition of free atom densities.

  Total energy components:
  | Sum of eigenvalues            :        -261.43220505 Ha       -7113.93225233 eV
  | XC energy correction          :         -55.11261011 Ha       -1499.69042441 eV
  | XC potential correction       :          70.44396519 Ha        1916.87782239 eV
  | Free-atom electrostatic energy:        -214.06293280 Ha       -5824.94877174 eV
  | Hartree energy correction     :           0.00000000 Ha           0.00000000 eV
  | van der Waals energy corr.    :           0.00000000 Ha           0.00000000 eV
  | Entropy correction            :          -0.00010367 Ha          -0.00282095 eV
  | ---------------------------
  | Total energy                  :        -460.16378278 Ha      -12521.69362608 eV
  | Total energy, T -> 0          :        -460.16388644 Ha      -12521.69644703 eV  <-- do not rely on this value for anything but (periodic) metals
  | Electronic free energy        :        -460.16399011 Ha      -12521.69926798 eV

  Derived energy quantities:
  | Kinetic energy                :         455.79803832 Ha       12402.89567502 eV
  | Electrostatic energy          :        -860.84921099 Ha      -23424.89887669 eV
  | Energy correction for multipole
  | error in Hartree potential    :           0.00000000 Ha           0.00000000 eV
  | Sum of eigenvalues per atom                           :        -374.41748696 eV
  | Total energy (T->0) per atom                          :        -659.03665511 eV  <-- do not rely on this value for anything but (periodic) metals
  | Electronic free energy per atom                       :        -659.03680358 eV
  Initialize hartree_potential_storage
  Max. number of atoms included in rho_multipole:           19

  End scf initialization - timings             :  max(cpu_time)    wall_clock(cpu1)
  | Time for scf. initialization               :        3.262 s           3.261 s
  | Boundary condition initialization          :        0.000 s           0.000 s
  | Integration                                :        2.396 s           2.395 s
  | Solution of K.-S. eqns.                    :        0.331 s           0.331 s
  | Grid partitioning                          :        0.212 s           0.212 s
  | Preloading free-atom quantities on grid    :        0.014 s           0.013 s
  | Free-atom superposition energy             :        0.097 s           0.098 s
  | Total energy evaluation                    :        0.000 s           0.000 s
------------------------------------------------------------

------------------------------------------------------------
          Begin self-consistency iteration #    1

  Date     :  20150727, Time     :  120117.163
------------------------------------------------------------
  Evaluating new KS density.
  Integration grid: deviation in total charge (<rho> - N_e) =  -2.575376E-09
  Pulay mixing of updated and previous charge densities.

  Evaluating partitioned Hartree potential by multipole expansion.
  | Analytical far-field extrapolation by fixed multipoles:
  | Hartree multipole sum: apparent total charge =  -0.159800E-05
  Summing up the Hartree potential.
  Time summed over all CPUs for potential: real work        4.064 s, elapsed        4.080 s
  | RMS charge density error from multipole expansion :   0.186338E-02

  Integrating Hamiltonian matrix: batch-based integration.
  Time summed over all CPUs for integration: real work       12.176 s, elapsed       12.336 s

  Updating Kohn-Sham eigenvalues, eigenvectors, occupation numbers, and Fermi level.
  Solving generalized eigenproblem
  Updating Kohn-Sham eigenvalues and eigenfunctions.
  Solving real generalised eigenvalue problem by standard LAPACK (fast)
  Determining occupation numbers for Kohn-Sham eigenstates.
  | Chemical potential (Fermi level) in eV                 : -.25412832E+01
  | Error in electron count due to remaining E_F inaccuracy: -.16200374E-11
  | Maximum occupation number of highest empty state:  0.00E+00

  Writing Kohn-Sham eigenvalues.

  State    Occupation    Eigenvalue [Ha]    Eigenvalue [eV]
      1       2.00000         -19.012091         -517.34532
      2       2.00000         -18.996127         -516.91091
      3       2.00000         -18.983854         -516.57695
      4       2.00000         -18.976087         -516.36561
      5       2.00000         -18.965304         -516.07218
      6       2.00000         -18.963514         -516.02347
      7       2.00000          -1.102550          -30.00192
      8       2.00000          -1.084628          -29.51423
      9       2.00000          -1.068912          -29.08658
     10       2.00000          -1.062570          -28.91399
     11       2.00000          -1.057861          -28.78586
     12       2.00000          -1.029719          -28.02008
     13       2.00000          -0.623690          -16.97147
     14       2.00000          -0.622334          -16.93458
     15       2.00000          -0.617329          -16.79837
     16       2.00000          -0.610774          -16.62001
     17       2.00000          -0.598459          -16.28490
     18       2.00000          -0.596608          -16.23452
     19       2.00000          -0.572493          -15.57832
     20       2.00000          -0.504041          -13.71566
     21       2.00000          -0.488607          -13.29568
     22       2.00000          -0.474317          -12.90683
     23       2.00000          -0.460901          -12.54177
     24       2.00000          -0.456762          -12.42913
     25       2.00000          -0.447233          -12.16983
     26       2.00000          -0.419473          -11.41444
     27       2.00000          -0.408478          -11.11524
     28       2.00000          -0.400674          -10.90290
     29       2.00000          -0.393217          -10.69998
     30       2.00000          -0.388566          -10.57341
     31       1.00000          -0.093390           -2.54128
     32       0.00000          -0.063022           -1.71490
     33       0.00000          -0.060076           -1.63475
     34       0.00000          -0.041130           -1.11921
     35       0.00000          -0.032326           -0.87963
     36       0.00000          -0.024038           -0.65411
     37       0.00000          -0.004984           -0.13562
     38       0.00000           0.031069            0.84542
     39       0.00000           0.035962            0.97858
     40       0.00000           0.046264            1.25890
     41       0.00000           0.052223            1.42107
     42       0.00000           0.065165            1.77322
     43       0.00000           0.072398            1.97006
     44       0.00000           0.072939            1.98477
     45       0.00000           0.088100            2.39733
     46       0.00000           0.093477            2.54363
     47       0.00000           0.101400            2.75924
     48       0.00000           0.109672            2.98433
     49       0.00000           0.117391            3.19438
     50       0.00000           0.119330            3.24714
     51       0.00000           0.122912            3.34461
     52       0.00000           0.126767            3.44951
     53       0.00000           0.129266            3.51751
     54       0.00000           0.141701            3.85589
     55       0.00000           0.154932            4.21592
     56       0.00000           0.160532            4.36829
     57       0.00000           0.167195            4.54960
     58       0.00000           0.171793            4.67473
     59       0.00000           0.176802            4.81102
     60       0.00000           0.186912            5.08613
     61       0.00000           0.195582            5.32205
     62       0.00000           0.203939            5.54945
     63       0.00000           0.219400            5.97019
     64       0.00000           0.237046            6.45034
     65       0.00000           0.247940            6.74680
     66       0.00000           0.257950            7.01917
     67       0.00000           0.261469            7.11492
     68       0.00000           0.269730            7.33973
     69       0.00000           0.287405            7.82069
     70       0.00000           0.297388            8.09233
     71       0.00000           0.306332            8.33571
     72       0.00000           0.328056            8.92687
     73       0.00000           0.331020            9.00752
     74       0.00000           0.339374            9.23482
     75       0.00000           0.355826            9.68252
     76       0.00000           0.359604            9.78532
     77       0.00000           0.381656           10.38539
     78       0.00000           0.394236           10.72770
     79       0.00000           0.397407           10.81399
     80       0.00000           0.405657           11.03850
     81       0.00000           0.418585           11.39029
     82       0.00000           0.432159           11.75963
     83       0.00000           0.440801           11.99481
     84       0.00000           0.449004           12.21801
     85       0.00000           0.461663           12.56248
     86       0.00000           0.466663           12.69854
     87       0.00000           0.481769           13.10960
     88       0.00000           0.483586           13.15905
     89       0.00000           0.506439           13.78091
     90       0.00000           0.521225           14.18327
     91       0.00000           0.525020           14.28651
     92       0.00000           0.548348           14.92131
     93       0.00000           0.551325           15.00231
     94       0.00000           0.564131           15.35077
     95       0.00000           0.582570           15.85255
     96       0.00000           0.591661           16.09993
     97       0.00000           0.613141           16.68441
     98       0.00000           0.641705           17.46169
     99       0.00000           0.643478           17.50993
    100       0.00000           0.691844           18.82604
    101       0.00000           0.718960           19.56390
    102       0.00000           0.753829           20.51272
    103       0.00000           0.763456           20.77470
    104       0.00000           0.774042           21.06275
    105       0.00000           0.779793           21.21926
    106       0.00000           0.796845           21.68325
    107       0.00000           0.807758           21.98020

  Highest occupied state (VBM) at    -10.57340605 eV
  | Occupation number:      2.00000000

  Lowest unoccupied state (CBM) at    -2.54128323 eV
  | Occupation number:      1.00000000

  Overall HOMO-LUMO gap:      8.03212282 eV.

  Total energy components:
  | Sum of eigenvalues            :        -258.86773728 Ha       -7044.14953368 eV
  | XC energy correction          :         -55.38169553 Ha       -1507.01261139 eV
  | XC potential correction       :          70.79518814 Ha        1926.43508534 eV
  | Free-atom electrostatic energy:        -214.06293280 Ha       -5824.94877174 eV
  | Hartree energy correction     :          -2.49863407 Ha         -67.99129251 eV
  | van der Waals energy corr.    :           0.00000000 Ha           0.00000000 eV
  | Entropy correction            :          -0.00010367 Ha          -0.00282095 eV
  | ---------------------------
  | Total energy                  :        -460.01581154 Ha      -12517.66712398 eV
  | Total energy, T -> 0          :        -460.01591521 Ha      -12517.66994493 eV  <-- do not rely on this value for anything but (periodic) metals
  | Electronic free energy        :        -460.01601888 Ha      -12517.67276588 eV

  Derived energy quantities:
  | Kinetic energy                :         457.43964894 Ha       12447.56617282 eV
  | Electrostatic energy          :        -862.07376495 Ha      -23458.22068542 eV
  | Energy correction for multipole
  | error in Hartree potential    :           0.00040150 Ha           0.01092528 eV
  | Sum of eigenvalues per atom                           :        -370.74471230 eV
  | Total energy (T->0) per atom                          :        -658.82473394 eV  <-- do not rely on this value for anything but (periodic) metals
  | Electronic free energy per atom                       :        -658.82488241 eV

  Self-consistency convergence accuracy:
  | Change of charge density      : 0.7037E+00
  | Change of sum of eigenvalues  : 0.6978E+02 eV
  | Change of total energy        : 0.4027E+01 eV

  End self-consistency iteration #     1       :  max(cpu_time)    wall_clock(cpu1)
  | Time for this iteration                    :        3.209 s           3.209 s
  | Charge density update                      :        1.048 s           1.048 s
  | Density mixing                             :        0.004 s           0.005 s
  | Hartree multipole update                   :        0.006 s           0.006 s
  | Hartree multipole summation                :        0.511 s           0.511 s
  | Integration                                :        1.545 s           1.545 s
  | Solution of K.-S. eqns.                    :        0.093 s           0.092 s
  | Total energy evaluation                    :        0.000 s           0.001 s
------------------------------------------------------------

------------------------------------------------------------
          Begin self-consistency iteration #    2

  Date     :  20150727, Time     :  120120.372
------------------------------------------------------------
  Evaluating new KS density.
  Integration grid: deviation in total charge (<rho> - N_e) =  -1.612932E-12
  Pulay mixing of updated and previous charge densities.

  Evaluating partitioned Hartree potential by multipole expansion.
  | Analytical far-field extrapolation by fixed multipoles:
  | Hartree multipole sum: apparent total charge =  -0.525484E-05
  Summing up the Hartree potential.
  Time summed over all CPUs for potential: real work        4.063 s, elapsed        4.079 s
  | RMS charge density error from multipole expansion :   0.766356E-02

  Integrating Hamiltonian matrix: batch-based integration.
  Time summed over all CPUs for integration: real work       12.156 s, elapsed       12.299 s

  Updating Kohn-Sham eigenvalues, eigenvectors, occupation numbers, and Fermi level.
  Solving generalized eigenproblem
  Updating Kohn-Sham eigenvalues and eigenfunctions.
  Solving real generalised eigenvalue problem by standard LAPACK (fast)
  Determining occupation numbers for Kohn-Sham eigenstates.
  | Chemical potential (Fermi level) in eV                 : -.19533060E+01
  | Error in electron count due to remaining E_F inaccuracy: 0.46895821E-12
  | Maximum occupation number of highest empty state:  0.00E+00

  Highest occupied state (VBM) at     -1.95330599 eV
  | Occupation number:      1.00000000

  Lowest unoccupied state (CBM) at    -1.19197276 eV
  | Occupation number:      0.00000000

  Overall HOMO-LUMO gap:      0.76133323 eV.

  Total energy components:
  | Sum of eigenvalues            :        -252.56821163 Ha       -6872.73071917 eV
  | XC energy correction          :         -56.07652704 Ha       -1525.91993871 eV
  | XC potential correction       :          71.70024510 Ha        1951.06293804 eV
  | Free-atom electrostatic energy:        -214.06293280 Ha       -5824.94877174 eV
  | Hartree energy correction     :          -8.83695568 Ha        -240.46579877 eV
  | van der Waals energy corr.    :           0.00000000 Ha           0.00000000 eV
  | Entropy correction            :          -0.00010367 Ha          -0.00282095 eV
  | ---------------------------
  | Total energy                  :        -459.84438206 Ha      -12513.00229035 eV
  | Total energy, T -> 0          :        -459.84448573 Ha      -12513.00511129 eV  <-- do not rely on this value for anything but (periodic) metals
  | Electronic free energy        :        -459.84458939 Ha      -12513.00793224 eV

  Derived energy quantities:
  | Kinetic energy                :         460.94215075 Ha       12542.87409643 eV
  | Electrostatic energy          :        -864.71000577 Ha      -23529.95644807 eV
  | Energy correction for multipole
  | error in Hartree potential    :           0.00045998 Ha           0.01251666 eV
  | Sum of eigenvalues per atom                           :        -361.72266943 eV
  | Total energy (T->0) per atom                          :        -658.57921638 eV  <-- do not rely on this value for anything but (periodic) metals
  | Electronic free energy per atom                       :        -658.57936485 eV

  Self-consistency convergence accuracy:
  | Change of charge density      : 0.5358E+00
  | Change of sum of eigenvalues  : 0.1714E+03 eV
  | Change of total energy        : 0.4665E+01 eV

  End self-consistency iteration #     2       :  max(cpu_time)    wall_clock(cpu1)
  | Time for this iteration                    :        3.196 s           3.196 s
  | Charge density update                      :        1.040 s           1.040 s
  | Density mixing                             :        0.007 s           0.007 s
  | Hartree multipole update                   :        0.006 s           0.006 s
  | Hartree multipole summation                :        0.510 s           0.511 s
  | Integration                                :        1.541 s           1.540 s
  | Solution of K.-S. eqns.                    :        0.091 s           0.091 s
  | Total energy evaluation                    :        0.000 s           0.001 s
------------------------------------------------------------

------------------------------------------------------------
          Begin self-consistency iteration #    3

  Date     :  20150727, Time     :  120123.568
------------------------------------------------------------
  Evaluating new KS density.
  Integration grid: deviation in total charge (<rho> - N_e) =   4.689582E-13
  Pulay mixing of updated and previous charge densities.

  Evaluating partitioned Hartree potential by multipole expansion.
  | Analytical far-field extrapolation by fixed multipoles:
  | Hartree multipole sum: apparent total charge =  -0.541980E-05
  Summing up the Hartree potential.
  Time summed over all CPUs for potential: real work        4.064 s, elapsed        4.081 s
  | RMS charge density error from multipole expansion :   0.153578E-01

  Integrating Hamiltonian matrix: batch-based integration.
  Time summed over all CPUs for integration: real work       12.157 s, elapsed       12.299 s

  Updating Kohn-Sham eigenvalues, eigenvectors, occupation numbers, and Fermi level.
  Solving generalized eigenproblem
  Updating Kohn-Sham eigenvalues and eigenfunctions.
  Solving real generalised eigenvalue problem by standard LAPACK (fast)
  Determining occupation numbers for Kohn-Sham eigenstates.
  | Chemical potential (Fermi level) in eV                 : -.18938971E+01
  | Error in electron count due to remaining E_F inaccuracy: -.85265128E-13
  | Maximum occupation number of highest empty state:  0.00E+00

  Highest occupied state (VBM) at     -7.06015723 eV
  | Occupation number:      2.00000000

  Lowest unoccupied state (CBM) at    -1.89389708 eV
  | Occupation number:      1.00000000

  Overall HOMO-LUMO gap:      5.16626014 eV.

  Total energy components:
  | Sum of eigenvalues            :        -252.99572001 Ha       -6884.36381394 eV
  | XC energy correction          :         -56.06310186 Ha       -1525.55462110 eV
  | XC potential correction       :          71.67255250 Ha        1950.30938420 eV
  | Free-atom electrostatic energy:        -214.06293280 Ha       -5824.94877174 eV
  | Hartree energy correction     :          -8.39369814 Ha        -228.40414753 eV
  | van der Waals energy corr.    :           0.00000000 Ha           0.00000000 eV
  | Entropy correction            :          -0.00010367 Ha          -0.00282095 eV
  | ---------------------------
  | Total energy                  :        -459.84290032 Ha      -12512.96197010 eV
  | Total energy, T -> 0          :        -459.84300398 Ha      -12512.96479105 eV  <-- do not rely on this value for anything but (periodic) metals
  | Electronic free energy        :        -459.84310765 Ha      -12512.96761200 eV

  Derived energy quantities:
  | Kinetic energy                :         458.73792541 Ha       12482.89407307 eV
  | Electrostatic energy          :        -862.51772386 Ha      -23470.30142207 eV
  | Energy correction for multipole
  | error in Hartree potential    :          -0.00507086 Ha          -0.13798507 eV
  | Sum of eigenvalues per atom                           :        -362.33493758 eV
  | Total energy (T->0) per atom                          :        -658.57709427 eV  <-- do not rely on this value for anything but (periodic) metals
  | Electronic free energy per atom                       :        -658.57724274 eV

  Self-consistency convergence accuracy:
  | Change of charge density      : 0.2555E+00
  | Change of sum of eigenvalues  : -.1163E+02 eV
  | Change of total energy        : 0.4032E-01 eV

  End self-consistency iteration #     3       :  max(cpu_time)    wall_clock(cpu1)
  | Time for this iteration                    :        3.201 s           3.200 s
  | Charge density update                      :        1.043 s           1.042 s
  | Density mixing                             :        0.008 s           0.009 s
  | Hartree multipole update                   :        0.006 s           0.006 s
  | Hartree multipole summation                :        0.511 s           0.511 s
  | Integration                                :        1.540 s           1.540 s
  | Solution of K.-S. eqns.                    :        0.090 s           0.091 s
  | Total energy evaluation                    :        0.000 s           0.001 s
------------------------------------------------------------

------------------------------------------------------------
          Begin self-consistency iteration #    4

  Date     :  20150727, Time     :  120126.768
------------------------------------------------------------
  Evaluating new KS density.
  Integration grid: deviation in total charge (<rho> - N_e) =  -8.526513E-14
  Pulay mixing of updated and previous charge densities.

  Evaluating partitioned Hartree potential by multipole expansion.
  | Analytical far-field extrapolation by fixed multipoles:
  | Hartree multipole sum: apparent total charge =  -0.659039E-05
  Summing up the Hartree potential.
  Time summed over all CPUs for potential: real work        4.063 s, elapsed        4.080 s
  | RMS charge density error from multipole expansion :   0.195705E-01

  Integrating Hamiltonian matrix: batch-based integration.
  Time summed over all CPUs for integration: real work       12.156 s, elapsed       12.296 s

  Updating Kohn-Sham eigenvalues, eigenvectors, occupation numbers, and Fermi level.
  Solving generalized eigenproblem
  Updating Kohn-Sham eigenvalues and eigenfunctions.
  Solving real generalised eigenvalue problem by standard LAPACK (fast)
  Determining occupation numbers for Kohn-Sham eigenstates.
  | Chemical potential (Fermi level) in eV                 : -.17485668E+01
  | Error in electron count due to remaining E_F inaccuracy: 0.98410169E-11
  | Maximum occupation number of highest empty state:  0.00E+00

  Highest occupied state (VBM) at     -1.74856675 eV
  | Occupation number:      1.00000000

  Lowest unoccupied state (CBM) at    -1.03037508 eV
  | Occupation number:      0.00000000

  Overall HOMO-LUMO gap:      0.71819167 eV.

  Total energy components:
  | Sum of eigenvalues            :        -251.51169218 Ha       -6843.98136212 eV
  | XC energy correction          :         -56.25872686 Ha       -1530.87784804 eV
  | XC potential correction       :          71.92416377 Ha        1957.15607523 eV
  | Free-atom electrostatic energy:        -214.06293280 Ha       -5824.94877174 eV
  | Hartree energy correction     :          -9.92699133 Ha        -270.12717812 eV
  | van der Waals energy corr.    :           0.00000000 Ha           0.00000000 eV
  | Entropy correction            :          -0.00010367 Ha          -0.00282095 eV
  | ---------------------------
  | Total energy                  :        -459.83617940 Ha      -12512.77908479 eV
  | Total energy, T -> 0          :        -459.83628307 Ha      -12512.78190574 eV  <-- do not rely on this value for anything but (periodic) metals
  | Electronic free energy        :        -459.83638674 Ha      -12512.78472668 eV

  Derived energy quantities:
  | Kinetic energy                :         458.85309216 Ha       12486.02791967 eV
  | Electrostatic energy          :        -862.43054470 Ha      -23467.92915642 eV
  | Energy correction for multipole
  | error in Hartree potential    :          -0.00711359 Ha          -0.19357077 eV
  | Sum of eigenvalues per atom                           :        -360.20954537 eV
  | Total energy (T->0) per atom                          :        -658.56746872 eV  <-- do not rely on this value for anything but (periodic) metals
  | Electronic free energy per atom                       :        -658.56761719 eV

  Self-consistency convergence accuracy:
  | Change of charge density      : 0.1197E+00
  | Change of sum of eigenvalues  : 0.4038E+02 eV
  | Change of total energy        : 0.1829E+00 eV

  End self-consistency iteration #     4       :  max(cpu_time)    wall_clock(cpu1)
  | Time for this iteration                    :        3.202 s           3.201 s
  | Charge density update                      :        1.043 s           1.042 s
  | Density mixing                             :        0.010 s           0.011 s
  | Hartree multipole update                   :        0.007 s           0.006 s
  | Hartree multipole summation                :        0.511 s           0.511 s
  | Integration                                :        1.540 s           1.540 s
  | Solution of K.-S. eqns.                    :        0.091 s           0.091 s
  | Total energy evaluation                    :        0.000 s           0.000 s
------------------------------------------------------------

------------------------------------------------------------
          Begin self-consistency iteration #    5

  Date     :  20150727, Time     :  120129.970
------------------------------------------------------------
  Evaluating new KS density.
  Integration grid: deviation in total charge (<rho> - N_e) =   9.841017E-12
  Pulay mixing of updated and previous charge densities.

  Evaluating partitioned Hartree potential by multipole expansion.
  | Analytical far-field extrapolation by fixed multipoles:
  | Hartree multipole sum: apparent total charge =  -0.679250E-05
  Summing up the Hartree potential.
  Time summed over all CPUs for potential: real work        4.062 s, elapsed        4.079 s
  | RMS charge density error from multipole expansion :   0.198842E-01

  Integrating Hamiltonian matrix: batch-based integration.
  Time summed over all CPUs for integration: real work       12.152 s, elapsed       12.302 s

  Updating Kohn-Sham eigenvalues, eigenvectors, occupation numbers, and Fermi level.
  Solving generalized eigenproblem
  Updating Kohn-Sham eigenvalues and eigenfunctions.
  Solving real generalised eigenvalue problem by standard LAPACK (fast)
  Determining occupation numbers for Kohn-Sham eigenstates.
  | Chemical potential (Fermi level) in eV                 : -.17636064E+01
  | Error in electron count due to remaining E_F inaccuracy: -.43549164E-10
  | Maximum occupation number of highest empty state:  0.00E+00

  Highest occupied state (VBM) at     -6.21915685 eV
  | Occupation number:      2.00000000

  Lowest unoccupied state (CBM) at    -1.76360637 eV
  | Occupation number:      1.00000000

  Overall HOMO-LUMO gap:      4.45555048 eV.

  Total energy components:
  | Sum of eigenvalues            :        -251.52580020 Ha       -6844.36526086 eV
  | XC energy correction          :         -56.25924334 Ha       -1530.89190229 eV
  | XC potential correction       :          71.92414307 Ha        1957.15551193 eV
  | Free-atom electrostatic energy:        -214.06293280 Ha       -5824.94877174 eV
  | Hartree energy correction     :          -9.91210608 Ha        -269.72212987 eV
  | van der Waals energy corr.    :           0.00000000 Ha           0.00000000 eV
  | Entropy correction            :          -0.00010367 Ha          -0.00282095 eV
  | ---------------------------
  | Total energy                  :        -459.83593936 Ha      -12512.77255283 eV
  | Total energy, T -> 0          :        -459.83604303 Ha      -12512.77537378 eV  <-- do not rely on this value for anything but (periodic) metals
  | Electronic free energy        :        -459.83614670 Ha      -12512.77819472 eV

  Derived energy quantities:
  | Kinetic energy                :         458.86316712 Ha       12486.30207346 eV
  | Electrostatic energy          :        -862.43986314 Ha      -23468.18272400 eV
  | Energy correction for multipole
  | error in Hartree potential    :          -0.00747927 Ha          -0.20352119 eV
  | Sum of eigenvalues per atom                           :        -360.22975057 eV
  | Total energy (T->0) per atom                          :        -658.56712494 eV  <-- do not rely on this value for anything but (periodic) metals
  | Electronic free energy per atom                       :        -658.56727341 eV

  Self-consistency convergence accuracy:
  | Change of charge density      : 0.2497E-01
  | Change of sum of eigenvalues  : -.3839E+00 eV
  | Change of total energy        : 0.6532E-02 eV

  End self-consistency iteration #     5       :  max(cpu_time)    wall_clock(cpu1)
  | Time for this iteration                    :        3.205 s           3.204 s
  | Charge density update                      :        1.043 s           1.042 s
  | Density mixing                             :        0.012 s           0.012 s
  | Hartree multipole update                   :        0.006 s           0.006 s
  | Hartree multipole summation                :        0.511 s           0.511 s
  | Integration                                :        1.541 s           1.540 s
  | Solution of K.-S. eqns.                    :        0.090 s           0.091 s
  | Total energy evaluation                    :        0.000 s           0.001 s
------------------------------------------------------------

------------------------------------------------------------
          Begin self-consistency iteration #    6

  Date     :  20150727, Time     :  120133.174
------------------------------------------------------------
  Evaluating new KS density.
  Integration grid: deviation in total charge (<rho> - N_e) =  -4.352785E-11
  Pulay mixing of updated and previous charge densities.

  Evaluating partitioned Hartree potential by multipole expansion.
  | Analytical far-field extrapolation by fixed multipoles:
  | Hartree multipole sum: apparent total charge =  -0.680323E-05
  Summing up the Hartree potential.
  Time summed over all CPUs for potential: real work        4.063 s, elapsed        4.079 s
  | RMS charge density error from multipole expansion :   0.200253E-01

  Integrating Hamiltonian matrix: batch-based integration.
  Time summed over all CPUs for integration: real work       12.151 s, elapsed       12.299 s

  Updating Kohn-Sham eigenvalues, eigenvectors, occupation numbers, and Fermi level.
  Solving generalized eigenproblem
  Updating Kohn-Sham eigenvalues and eigenfunctions.
  Solving real generalised eigenvalue problem by standard LAPACK (fast)
  Determining occupation numbers for Kohn-Sham eigenstates.
  | Chemical potential (Fermi level) in eV                 : -.17661974E+01
  | Error in electron count due to remaining E_F inaccuracy: 0.00000000E+00
  | Maximum occupation number of highest empty state:  0.00E+00

  Highest occupied state (VBM) at     -1.76619738 eV
  | Occupation number:      1.00000000

  Lowest unoccupied state (CBM) at    -1.76619738 eV
  | Occupation number:      1.00000000

  Overall HOMO-LUMO gap:      0.00000000 eV.

  Total energy components:
  | Sum of eigenvalues            :        -251.55618146 Ha       -6845.19197701 eV
  | XC energy correction          :         -56.25728382 Ha       -1530.83858106 eV
  | XC potential correction       :          71.92133446 Ha        1957.07908574 eV
  | Free-atom electrostatic energy:        -214.06293280 Ha       -5824.94877174 eV
  | Hartree energy correction     :          -9.88087500 Ha        -268.87228872 eV
  | van der Waals energy corr.    :           0.00000000 Ha           0.00000000 eV
  | Entropy correction            :          -0.00010367 Ha          -0.00282095 eV
  | ---------------------------
  | Total energy                  :        -459.83593862 Ha      -12512.77253278 eV
  | Total energy, T -> 0          :        -459.83604229 Ha      -12512.77535373 eV  <-- do not rely on this value for anything but (periodic) metals
  | Electronic free energy        :        -459.83614596 Ha      -12512.77817468 eV

  Derived energy quantities:
  | Kinetic energy                :         458.83623980 Ha       12485.56934362 eV
  | Electrostatic energy          :        -862.41489459 Ha      -23467.50329534 eV
  | Energy correction for multipole
  | error in Hartree potential    :          -0.00763382 Ha          -0.20772688 eV
  | Sum of eigenvalues per atom                           :        -360.27326195 eV
  | Total energy (T->0) per atom                          :        -658.56712388 eV  <-- do not rely on this value for anything but (periodic) metals
  | Electronic free energy per atom                       :        -658.56727235 eV

  Self-consistency convergence accuracy:
  | Change of charge density      : 0.9137E-02
  | Change of sum of eigenvalues  : -.8267E+00 eV
  | Change of total energy        : 0.2005E-04 eV

  End self-consistency iteration #     6       :  max(cpu_time)    wall_clock(cpu1)
  | Time for this iteration                    :        3.206 s           3.205 s
  | Charge density update                      :        1.042 s           1.042 s
  | Density mixing                             :        0.013 s           0.014 s
  | Hartree multipole update                   :        0.007 s           0.007 s
  | Hartree multipole summation                :        0.511 s           0.510 s
  | Integration                                :        1.540 s           1.540 s
  | Solution of K.-S. eqns.                    :        0.091 s           0.092 s
  | Total energy evaluation                    :        0.001 s           0.000 s
------------------------------------------------------------

------------------------------------------------------------
          Begin self-consistency iteration #    7

  Date     :  20150727, Time     :  120136.379
------------------------------------------------------------
  Evaluating new KS density.
  Integration grid: deviation in total charge (<rho> - N_e) =   7.105427E-15
  Pulay mixing of updated and previous charge densities.

  Evaluating partitioned Hartree potential by multipole expansion.
  | Analytical far-field extrapolation by fixed multipoles:
  | Hartree multipole sum: apparent total charge =  -0.683038E-05
  Summing up the Hartree potential.
  Time summed over all CPUs for potential: real work        4.062 s, elapsed        4.079 s
  | RMS charge density error from multipole expansion :   0.201881E-01

  Integrating Hamiltonian matrix: batch-based integration.
  Time summed over all CPUs for integration: real work       12.152 s, elapsed       12.307 s

  Updating Kohn-Sham eigenvalues, eigenvectors, occupation numbers, and Fermi level.
  Solving generalized eigenproblem
  Updating Kohn-Sham eigenvalues and eigenfunctions.
  Solving real generalised eigenvalue problem by standard LAPACK (fast)
  Determining occupation numbers for Kohn-Sham eigenstates.
  | Chemical potential (Fermi level) in eV                 : -.17758913E+01
  | Error in electron count due to remaining E_F inaccuracy: 0.81044504E-10
  | Maximum occupation number of highest empty state:  0.00E+00

  Highest occupied state (VBM) at     -1.77589126 eV
  | Occupation number:      1.00000000

  Lowest unoccupied state (CBM) at    -1.05196694 eV
  | Occupation number:      0.00000000

  Overall HOMO-LUMO gap:      0.72392432 eV.

  Total energy components:
  | Sum of eigenvalues            :        -251.61605955 Ha       -6846.82134284 eV
  | XC energy correction          :         -56.25353939 Ha       -1530.73668986 eV
  | XC potential correction       :          71.91595549 Ha        1956.93271657 eV
  | Free-atom electrostatic energy:        -214.06293280 Ha       -5824.94877174 eV
  | Hartree energy correction     :          -9.81935128 Ha        -267.19814313 eV
  | van der Waals energy corr.    :           0.00000000 Ha           0.00000000 eV
  | Entropy correction            :          -0.00010367 Ha          -0.00282095 eV
  | ---------------------------
  | Total energy                  :        -459.83592753 Ha      -12512.77223101 eV
  | Total energy, T -> 0          :        -459.83603120 Ha      -12512.77505196 eV  <-- do not rely on this value for anything but (periodic) metals
  | Electronic free energy        :        -459.83613487 Ha      -12512.77787290 eV

  Derived energy quantities:
  | Kinetic energy                :         458.87362823 Ha       12486.58673472 eV
  | Electrostatic energy          :        -862.45601637 Ha      -23468.62227587 eV
  | Energy correction for multipole
  | error in Hartree potential    :          -0.00793692 Ha          -0.21597465 eV
  | Sum of eigenvalues per atom                           :        -360.35901804 eV
  | Total energy (T->0) per atom                          :        -658.56710800 eV  <-- do not rely on this value for anything but (periodic) metals
  | Electronic free energy per atom                       :        -658.56725647 eV

  Self-consistency convergence accuracy:
  | Change of charge density      : 0.7238E-02
  | Change of sum of eigenvalues  : -.1629E+01 eV
  | Change of total energy        : 0.3018E-03 eV

  End self-consistency iteration #     7       :  max(cpu_time)    wall_clock(cpu1)
  | Time for this iteration                    :        3.207 s           3.207 s
  | Charge density update                      :        1.040 s           1.040 s
  | Density mixing                             :        0.016 s           0.016 s
  | Hartree multipole update                   :        0.006 s           0.007 s
  | Hartree multipole summation                :        0.511 s           0.510 s
  | Integration                                :        1.542 s           1.541 s
  | Solution of K.-S. eqns.                    :        0.092 s           0.092 s
  | Total energy evaluation                    :        0.000 s           0.000 s
------------------------------------------------------------

------------------------------------------------------------
          Begin self-consistency iteration #    8

  Date     :  20150727, Time     :  120139.586
------------------------------------------------------------
  Evaluating new KS density.
  Integration grid: deviation in total charge (<rho> - N_e) =   8.108714E-11
  Pulay mixing of updated and previous charge densities.

  Evaluating partitioned Hartree potential by multipole expansion.
  | Analytical far-field extrapolation by fixed multipoles:
  | Hartree multipole sum: apparent total charge =  -0.682255E-05
  Summing up the Hartree potential.
  Time summed over all CPUs for potential: real work        4.062 s, elapsed        4.079 s
  | RMS charge density error from multipole expansion :   0.202182E-01

  Integrating Hamiltonian matrix: batch-based integration.
  Time summed over all CPUs for integration: real work       12.143 s, elapsed       12.308 s

  Updating Kohn-Sham eigenvalues, eigenvectors, occupation numbers, and Fermi level.
  Solving generalized eigenproblem
  Updating Kohn-Sham eigenvalues and eigenfunctions.
  Solving real generalised eigenvalue problem by standard LAPACK (fast)
  Determining occupation numbers for Kohn-Sham eigenstates.
  | Chemical potential (Fermi level) in eV                 : -.17817650E+01
  | Error in electron count due to remaining E_F inaccuracy: 0.00000000E+00
  | Maximum occupation number of highest empty state:  0.00E+00

  Highest occupied state (VBM) at     -1.78176503 eV
  | Occupation number:      1.00000000

  Lowest unoccupied state (CBM) at    -1.78176503 eV
  | Occupation number:      1.00000000

  Overall HOMO-LUMO gap:      0.00000000 eV.

  Total energy components:
  | Sum of eigenvalues            :        -251.64482113 Ha       -6847.60398520 eV
  | XC energy correction          :         -56.25161863 Ha       -1530.68442319 eV
  | XC potential correction       :          71.91332100 Ha        1956.86102834 eV
  | Free-atom electrostatic energy:        -214.06293280 Ha       -5824.94877174 eV
  | Hartree energy correction     :          -9.78986918 Ha        -266.39589433 eV
  | van der Waals energy corr.    :           0.00000000 Ha           0.00000000 eV
  | Entropy correction            :          -0.00010367 Ha          -0.00282095 eV
  | ---------------------------
  | Total energy                  :        -459.83592074 Ha      -12512.77204613 eV
  | Total energy, T -> 0          :        -459.83602441 Ha      -12512.77486707 eV  <-- do not rely on this value for anything but (periodic) metals
  | Electronic free energy        :        -459.83612807 Ha      -12512.77768802 eV

  Derived energy quantities:
  | Kinetic energy                :         458.88266445 Ha       12486.83262268 eV
  | Electrostatic energy          :        -862.46696656 Ha      -23468.92024561 eV
  | Energy correction for multipole
  | error in Hartree potential    :          -0.00802422 Ha          -0.21835014 eV
  | Sum of eigenvalues per atom                           :        -360.40020975 eV
  | Total energy (T->0) per atom                          :        -658.56709827 eV  <-- do not rely on this value for anything but (periodic) metals
  | Electronic free energy per atom                       :        -658.56724674 eV

  Self-consistency convergence accuracy:
  | Change of charge density      : 0.2555E-02
  | Change of sum of eigenvalues  : -.7826E+00 eV
  | Change of total energy        : 0.1849E-03 eV

  End self-consistency iteration #     8       :  max(cpu_time)    wall_clock(cpu1)
  | Time for this iteration                    :        3.207 s           3.206 s
  | Charge density update                      :        1.039 s           1.039 s
  | Density mixing                             :        0.017 s           0.017 s
  | Hartree multipole update                   :        0.006 s           0.007 s
  | Hartree multipole summation                :        0.511 s           0.511 s
[...]
   Hellmann-Feynman + Multipole  : -.616784E+00 -.272277E+00 0.154435E+01
   Pulay + GGA                   : -.438840E-01 -.233537E-01 0.583805E-01
   Van der Waals               : -.700640E-03 -.500405E-02 -.631222E-02
   ----------------------------------------------------------------
   Total forces(  16)            : -.661368E+00 -.300635E+00 0.159642E+01
  atom #   17
   Hellmann-Feynman + Multipole  : -.162086E+01 -.124343E+02 -.785412E+00
   Pulay + GGA                   : 0.254018E+01 0.123666E+02 -.789637E+00
   Van der Waals               : 0.201847E-02 -.543078E-02 -.792617E-02
   ----------------------------------------------------------------
   Total forces(  17)            : 0.921334E+00 -.731242E-01 -.158297E+01
  atom #   18
   Hellmann-Feynman + Multipole  : -.403639E+00 0.730638E+00 0.463140E+00
   Pulay + GGA                   : -.893082E-01 0.902763E-01 0.832637E-01
   Van der Waals               : 0.254094E-02 -.267127E-02 -.211739E-02
   ----------------------------------------------------------------
   Total forces(  18)            : -.490406E+00 0.818243E+00 0.544287E+00
  atom #   19
   Hellmann-Feynman + Multipole  : -.675571E+00 -.606987E+00 0.103515E+01
   Pulay + GGA                   : 0.474396E-01 0.755681E-01 -.133186E+00
   Van der Waals               : -.237640E-02 -.204512E-02 -.253718E-02
   ----------------------------------------------------------------
   Total forces(  19)            : -.630508E+00 -.533464E+00 0.899431E+00
  Timings for vdw_correction_hirshfeld (Tkatchenko-Scheffler 2009):
  | CPU time:        8.645 s, Wall clock time:        8.645 s.
  Removing unitary transformations (pure translations, rotations) from forces on atoms.
  Atomic forces before filtering:
  | Net force on center of mass :  0.920491E-02 -.122844E-02 0.538288E-03 eV/A
  | Net torque on center of mass:  0.730334E-02 -.843799E-02 -.203440E-02 eV
  Atomic forces after filtering:
  | Net force on center of mass :  0.892031E-16 0.124884E-14 0.356812E-15 eV/A
  | Net torque on center of mass:  0.143973E-14 0.566451E-15 0.944085E-15 eV
 
  Energy and forces in a compact form:
  | Total energy uncorrected      :         -0.125129019897967E+05 eV
  | Total energy corrected        :         -0.125129048107446E+05 eV  <-- do not rely on this value for anything but (periodic) metals
  | Electronic free energy        :         -0.125129076316925E+05 eV
  Total atomic forces (unitary forces cleaned) [eV/Ang]:
  |   1          0.787439662728314E+00          0.134257719056408E+01         -0.149178863109931E+01
  |   2          0.218966381570923E+00         -0.504140410642820E+00          0.113827581153458E+00
  |   3         -0.934612614413538E+00         -0.318506077572141E+00          0.526036508895638E-01
  |   4         -0.658174423999002E-01         -0.202204524419445E+00          0.121900137048853E+01
  |   5         -0.694130624750124E+00         -0.224784005732387E+01         -0.153360979600525E+01
  |   6          0.131870295639326E+00          0.161613672307637E+01          0.134545536221271E+01
  |   7          0.408274388193181E+00          0.536446450113574E+00          0.135119677064863E+00
  |   8          0.468883170230799E+00         -0.837311808280629E+00          0.305288474265822E+01
  |   9          0.323805234227945E-01          0.180050852561766E+00          0.156403284976423E-01
  |  10         -0.360573897671599E+00          0.459427510797366E+00         -0.292806284095734E+01
  |  11         -0.602966750459567E+00          0.268862629251045E+00          0.225787623242416E+01
  |  12         -0.224303983795145E+00          0.195853090236903E+00         -0.190921701277805E+01
  |  13          0.703468189374798E+00         -0.793534293990046E+00          0.155239796072880E+00
  |  14          0.134642638221614E+01          0.594266994612056E+00         -0.220521871313631E+01
  |  15         -0.352572697631363E+00         -0.201562739149061E+00          0.263463397350875E+00
  |  16         -0.661783679350376E+00         -0.300446784852920E+00          0.159617342620244E+01
  |  17          0.920901587329899E+00         -0.730275283910687E-01         -0.158299163584918E+01
  |  18         -0.490815736265193E+00          0.818356629230852E+00          0.544268178939916E+00
  |  19         -0.631033153969372E+00         -0.533403845822008E+00          0.899334885870184E+00
 
  ------------------------------------ 
  Start decomposition of the XC Energy 
  ------------------------------------ 
  Hartree-Fock part   :          0.000000000 Ha              0.000000000 eV
  ------------------------------------ 
  X Energy            :        -54.257766934 Ha          -1476.428958153 eV
  C Energy GGA        :         -1.993712300 Ha            -54.251671980 eV
  Total XC Energy     :        -56.251479234 Ha          -1530.680630133 eV
  LDA X and C from self-consistent density 
  X Energy LDA        :        -48.926661195 Ha          -1331.362190091 eV
  C Energy LDA        :         -4.003241515 Ha           -108.933744115 eV
  ------------------------------------ 
  End decomposition of the XC Energy 
  ------------------------------------ 
  Performing Hirshfeld analysis of fragment charges and moments.
  ----------------------------------------------------------------------
  | Atom     1: O
  |   Hirshfeld charge        :     -0.12649249
  |   Free atom volume        :     23.95238533
  |   Hirshfeld volume        :     21.37920314
  |   Hirshfeld dipole vector :      0.00125622       0.02856702       0.03066362
  |   Hirshfeld dipole moment :      0.04192744
  |   Hirshfeld second moments:      0.09705495      -0.00250561      -0.00305942
  |                                 -0.00250561       0.04787998      -0.02271265
  |                                 -0.00305942      -0.02271265       0.05953644
  ----------------------------------------------------------------------
  | Atom     2: H
  |   Hirshfeld charge        :      0.11250062
  |   Free atom volume        :     10.44207651
  |   Hirshfeld volume        :      9.66962683
  |   Hirshfeld dipole vector :     -0.00732984       0.01004998       0.00553682
  |   Hirshfeld dipole moment :      0.01361561
  |   Hirshfeld second moments:      0.04420318       0.01699748       0.00123057
  |                                  0.01699748       0.02727247       0.01170175
  |                                  0.00123057       0.01170175       0.06063719
  ----------------------------------------------------------------------
  | Atom     3: H
  |   Hirshfeld charge        :      0.14919087
  |   Free atom volume        :     10.44207651
  |   Hirshfeld volume        :     10.24768608
  |   Hirshfeld dipole vector :      0.05159208       0.01295042       0.01727054
  |   Hirshfeld dipole moment :      0.05592609
  |   Hirshfeld second moments:      0.03001058      -0.01536957       0.00400038
  |                                 -0.01536957       0.04831766       0.00259101
  |                                  0.00400038       0.00259101       0.05849930
  ----------------------------------------------------------------------
  | Atom     4: H
  |   Hirshfeld charge        :      0.11290917
  |   Free atom volume        :     10.44207651
  |   Hirshfeld volume        :      8.94753446
  |   Hirshfeld dipole vector :     -0.01381748       0.00397265       0.01829546
  |   Hirshfeld dipole moment :      0.02326862
  |   Hirshfeld second moments:      0.07661177       0.00731114       0.01153998
  |                                  0.00731114       0.07283575       0.00522057
  |                                  0.01153998       0.00522057       0.02278650
  ----------------------------------------------------------------------
  | Atom     5: O
  |   Hirshfeld charge        :     -0.23393492
  |   Free atom volume        :     23.95238533
  |   Hirshfeld volume        :     21.64888764
  |   Hirshfeld dipole vector :     -0.02136040       0.02676000      -0.00155982
  |   Hirshfeld dipole moment :      0.03427532
  |   Hirshfeld second moments:      0.03966619       0.04634444      -0.01328389
  |                                  0.04634444       0.03513188       0.00898429
  |                                 -0.01328389       0.00898429       0.05654010
  ----------------------------------------------------------------------
  | Atom     6: H
  |   Hirshfeld charge        :      0.09641729
  |   Free atom volume        :     10.44207651
  |   Hirshfeld volume        :      8.85831829
  |   Hirshfeld dipole vector :      0.01180771       0.03149590       0.02438901
  |   Hirshfeld dipole moment :      0.04154802
  |   Hirshfeld second moments:      0.06787378       0.00248873      -0.01073434
  |                                  0.00248873       0.03478268      -0.01940070
  |                                 -0.01073434      -0.01940070       0.06654543
  ----------------------------------------------------------------------
  | Atom     7: H
  |   Hirshfeld charge        :      0.13540838
  |   Free atom volume        :     10.44207651
  |   Hirshfeld volume        :      9.30845485
  |   Hirshfeld dipole vector :     -0.07170562      -0.04270333       0.02001186
  |   Hirshfeld dipole moment :      0.08582392
  |   Hirshfeld second moments:      0.04841246       0.00849385       0.00052535
  |                                  0.00849385       0.06625255       0.01065901
  |                                  0.00052535       0.01065901       0.07511757
  ----------------------------------------------------------------------
  | Atom     8: O
  |   Hirshfeld charge        :     -0.21577175
  |   Free atom volume        :     23.95238533
  |   Hirshfeld volume        :     22.91789454
  |   Hirshfeld dipole vector :      0.03561773      -0.00707811      -0.01636265
  |   Hirshfeld dipole moment :      0.03983037
  |   Hirshfeld second moments:     -0.02179233       0.00442945       0.04027263
  |                                  0.00442945       0.04273354       0.00393065
  |                                  0.04027263       0.00393065       0.05416740
  ----------------------------------------------------------------------
  | Atom     9: H
  |   Hirshfeld charge        :      0.08405106
  |   Free atom volume        :     10.44207651
  |   Hirshfeld volume        :     12.23758878
  |   Hirshfeld dipole vector :      0.02148263       0.01009571       0.03297738
  |   Hirshfeld dipole moment :      0.04063169
  |   Hirshfeld second moments:     -0.02919441      -0.01234567       0.01848908
  |                                 -0.01234567      -0.01821173       0.00151647
  |                                  0.01848908       0.00151647       0.04197767
  ----------------------------------------------------------------------
  | Atom    10: H
  |   Hirshfeld charge        :      0.09980640
  |   Free atom volume        :     10.44207651
  |   Hirshfeld volume        :     12.54560552
  |   Hirshfeld dipole vector :     -0.01095522      -0.00583328      -0.05709085
  |   Hirshfeld dipole moment :      0.05842439
  |   Hirshfeld second moments:     -0.01117203       0.00354853       0.02045804
  |                                  0.00354853       0.02052361       0.00566730
  |                                  0.02045804       0.00566730       0.00366709
  ----------------------------------------------------------------------
  | Atom    11: O
  |   Hirshfeld charge        :     -0.21302215
  |   Free atom volume        :     23.95238533
  |   Hirshfeld volume        :     21.29808277
  |   Hirshfeld dipole vector :      0.00079786       0.00389590      -0.01309262
  |   Hirshfeld dipole moment :      0.01368325
  |   Hirshfeld second moments:      0.03858073      -0.01004148       0.00743296
  |                                 -0.01004148       0.04293268      -0.00455577
  |                                  0.00743296      -0.00455577       0.07306558
  ----------------------------------------------------------------------
  | Atom    12: H
  |   Hirshfeld charge        :      0.12166731
  |   Free atom volume        :     10.44207651
  |   Hirshfeld volume        :      9.17662786
  |   Hirshfeld dipole vector :      0.01547319      -0.00835712       0.07267694
  |   Hirshfeld dipole moment :      0.07477432
  |   Hirshfeld second moments:      0.06837694      -0.00703216      -0.00066256
  |                                 -0.00703216       0.06843489       0.00226113
  |                                 -0.00066256       0.00226113       0.05031853
  ----------------------------------------------------------------------
  | Atom    13: H
  |   Hirshfeld charge        :      0.08779576
  |   Free atom volume        :     10.44207651
  |   Hirshfeld volume        :      9.05363373
  |   Hirshfeld dipole vector :     -0.01620714       0.01945564      -0.00234185
  |   Hirshfeld dipole moment :      0.02542985
  |   Hirshfeld second moments:      0.03760240       0.01501095      -0.01243594
  |                                  0.01501095       0.04120166       0.00879704
  |                                 -0.01243594       0.00879704       0.07219336
  ----------------------------------------------------------------------
  | Atom    14: O
  |   Hirshfeld charge        :     -0.35572093
  |   Free atom volume        :     23.95238533
  |   Hirshfeld volume        :     23.98926609
  |   Hirshfeld dipole vector :      0.01062139       0.01207722       0.08238548
  |   Hirshfeld dipole moment :      0.08394069
  |   Hirshfeld second moments:      0.00872541       0.06279778      -0.00962767
  |                                  0.06279778      -0.05011229       0.00183016
  |                                 -0.00962767       0.00183016      -0.05567223
  ----------------------------------------------------------------------
  | Atom    15: H
  |   Hirshfeld charge        :      0.11354868
  |   Free atom volume        :     10.44207651
  |   Hirshfeld volume        :      8.92142390
  |   Hirshfeld dipole vector :      0.09070722       0.05925090       0.03989159
  |   Hirshfeld dipole moment :      0.11545479
  |   Hirshfeld second moments:      0.07712353       0.01992887      -0.01438932
  |                                  0.01992887       0.05422061      -0.00717196
  |                                 -0.01438932      -0.00717196       0.06314490
  ----------------------------------------------------------------------
  | Atom    16: H
  |   Hirshfeld charge        :      0.06476031
  |   Free atom volume        :     10.44207651
  |   Hirshfeld volume        :      9.25480328
  |   Hirshfeld dipole vector :     -0.02814632      -0.01602200       0.04110310
  |   Hirshfeld dipole moment :      0.05232957
  |   Hirshfeld second moments:      0.04918693       0.00784313       0.02828780
  |                                  0.00784313       0.04690738       0.01434230
  |                                  0.02828780       0.01434230       0.03186052
  ----------------------------------------------------------------------
  | Atom    17: O
  |   Hirshfeld charge        :     -0.23536060
  |   Free atom volume        :     23.95238533
  |   Hirshfeld volume        :     22.65567737
  |   Hirshfeld dipole vector :      0.03357454       0.01960311       0.02076011
  |   Hirshfeld dipole moment :      0.04407396
  |   Hirshfeld second moments:      0.00879978      -0.03598252      -0.04229442
  |                                 -0.03598252       0.02218965      -0.00757245
  |                                 -0.04229442      -0.00757245       0.03341129
  ----------------------------------------------------------------------
  | Atom    18: H
  |   Hirshfeld charge        :      0.11034396
  |   Free atom volume        :     10.44207651
  |   Hirshfeld volume        :     10.65414807
  |   Hirshfeld dipole vector :     -0.03643145       0.05073290       0.05059608
  |   Hirshfeld dipole moment :      0.08038059
  |   Hirshfeld second moments:      0.03907084      -0.00851773      -0.01686182
  |                                 -0.00851773       0.03252817      -0.00914762
  |                                 -0.01686182      -0.00914762       0.04017229
  ----------------------------------------------------------------------
  | Atom    19: H
  |   Hirshfeld charge        :      0.09183077
  |   Free atom volume        :     10.44207651
  |   Hirshfeld volume        :     11.26024246
  |   Hirshfeld dipole vector :      0.03911373       0.00782672      -0.02482461
  |   Hirshfeld dipole moment :      0.04698300
  |   Hirshfeld second moments:      0.01391404      -0.02262329      -0.00818323
  |                                 -0.02262329       0.02228775       0.02635057
  |                                 -0.00818323       0.02635057       0.01328039
  ----------------------------------------------------------------------


------------------------------------------------------------------------------
  Final output of selected total energy values:

  The following output summarizes some interesting total energy values
  at the end of a run (AFTER all relaxation, molecular dynamics, etc.).

  | Total energy of the DFT / Hartree-Fock s.c.f. calculation      :         -12512.901989797 eV
  | Final zero-broadening corrected energy (caution - metals only) :         -12512.904810745 eV
  | For reference only, the value of 1 Hartree used in FHI-aims is :             27.211384500 eV

  Before relying on these values, please be sure to understand exactly which
  total energy value is referred to by a given number. Different objects may
  all carry the same name 'total energy'. Definitions:

  Total energy of the DFT / Hartree-Fock s.c.f. calculation:
  | Note that this energy does not include ANY quantities calculated after the
  | s.c.f. cycle, in particular not ANY RPA, MP2, etc. many-body perturbation terms.

  Final zero-broadening corrected energy:
  | For metallic systems only, a broadening of the occupation numbers at the Fermi
  | level can be extrapolated back to zero broadening by an electron-gas inspired
  | formula. For all systems that are not real metals, this value can be
  | meaningless and should be avoided.

------------------------------------------------------------------------------

------------------------------------------------------------
          Leaving FHI-aims.
          Date     :  20150727, Time     :  120220.419

          Computational steps:
          | Number of self-consistency cycles          :           16

          Detailed time accounting                     :  max(cpu_time)    wall_clock(cpu1)
          | Total time                                 :       66.978 s          67.020 s
          | Preparation time                           :        0.170 s           0.489 s
          | Grid partitioning                          :        0.212 s           0.212 s
          | Preloading free-atom quantities on grid    :        0.014 s           0.013 s
          | Free-atom superposition energy             :        0.097 s           0.098 s
          | Total time for integrations                :       27.071 s          27.068 s
          | Total time for solution of K.-S. equations :        1.789 s           1.794 s
          | Total time for density & force components  :       25.801 s          25.803 s
          | Total time for mixing                      :        0.259 s           0.263 s
          | Total time for Hartree multipole update    :        0.105 s           0.103 s
          | Total time for Hartree multipole sum       :       10.733 s          10.732 s
          | Total time for total energy evaluation     :        0.006 s           0.007 s
          | Total time for scaled ZORA corrections     :        0.000 s           0.000 s
          | Total time for TS (2009) vdW correction    :        0.079 s           0.080 s

          Have a nice day.
------------------------------------------------------------
