  MPI-parallelism will be employed.
------------------------------------------------------------
          Invoking FHI-aims ...
          Version 081213
          Compiled on 2013/08/29 at 17:41:06 on host generoso.

          When using FHI-aims, please cite the following reference:

          Volker Blum, Ralf Gehrke, Felix Hanke, Paula Havu,
          Ville Havu, Xinguo Ren, Karsten Reuter, and Matthias Scheffler,
          'Ab Initio Molecular Simulations with Numeric Atom-Centered Orbitals: FHI-aims',
          Computer Physics Communications 180, 2175-2196 (2009)

          For any questions about FHI-aims, please visit the aimsclub website
          with its forums and wiki. Contributions to both the forums and the
          wiki are warmly encouraged - they are for you, and everyone is welcome there.

------------------------------------------------------------

  Date     :  20150727, Time     :  124143.011
  Time zero on CPU 1             :   0.399930000000000E-01  s.
  Internal wall clock time zero  :           207232903.011  s.

  Using        8 parallel tasks.
  Task        0 on host gen59 reporting.
  Task        1 on host gen59 reporting.
  Task        2 on host gen59 reporting.
  Task        3 on host gen59 reporting.
  Task        4 on host gen59 reporting.
  Task        5 on host gen59 reporting.
  Task        6 on host gen59 reporting.
  Task        7 on host gen59 reporting.

  Performing system and environment tests:
  | Environment variable OMP_NUM_THREADS correctly set to 1.
  | Checking for scalapack...
  | No scalapack compiled in.

  Obtaining array dimensions for all initial allocations:
  
  -----------------------------------------------------------------------
  Parsing control.in (first pass over file, find array dimensions only).
  The contents of control.in will be repeated verbatim below
  unless switched off by setting 'verbatim_writeout .false.' .
  in the first line of control.in .
  -----------------------------------------------------------------------
  
  #########################################################################################
  #
  #  Volker Blum, FHI 2008 : Test run input file control.in
  #
  #########################################################################################
  #
  #  Physical model
  #
    xc                 rpbe
    spin               none
    relativistic       atomic_zora scalar
    charge             0.
   vdw_correction_hirshfeld
  #
  #  SCF convergence
  #
    occupation_type    gaussian 0.01
    mixer              pulay
      n_max_pulay        10
      charge_mix_param   0.1
    sc_accuracy_rho    5E-5
    sc_accuracy_eev    5E-3
    sc_accuracy_etot   5E-6
    sc_iter_limit      3000
  #
  #  Eigenvalue solver
  #
    KS_method          lapack
      empty_states       8
      basis_threshold    0.e-5
  #
  #  Efficiency
  #
  #   all previous settings are now default, except stratmann still
  #   undecided. Continue to handle stratmann with care, if at all.
  #
  #  partition_type stratmann
    partition_type rho_r2
  #  hartree_partition_type stratmann
  #
  #  Oprions for large clusters (100's of atoms: memory saving / better scaling)
  #
  # for periodic systems:
  #
    density_update_method orbital
    packed_matrix_format none
  #  k_grid 6 6 6
  #  output k_eigenvalue 1
  #  distributed_spline_storage .true.
  #
  #  Relaxation
  #
  #  relax_geometry   bfgs 5.e-3
    sc_accuracy_forces 5.E-4
    final_forces_cleaned .true.
  #
  #  Output options
  #
  #  output mulliken
    output Hirshfeld
  #  output dipole
  
  #harmonic_length_scale 0.001
  
  ################################################################################
  #
  #  FHI-aims code project
  #  VB, Fritz-Haber Institut, 2007
  #
  #  Suggested "safe" defaults for H atom (to be pasted into control.in file)
  #  Basis constructed for a non-relativistic H2 molecule using the
  #  PW-LDA functional.
  #
  ################################################################################
    species        H
  #     global species definitions
      nucleus             1
      cut_pot             4.0  2.0  1.0
      cut_free_atom       finite 8.0
      logarithmic         0.00010000 100.00  1.0123
      basis_dep_cutoff    1d-4  # 1d-4 is safe default - please check 5d-4 if you wish!
      radial_base         24 7.0
      radial_multiplier   2
      angular_grids       specified
        division   0.2783  110
        division   0.3822  194
        division   0.5626  302
  #      division   0.5922  434
  #      division   0.6227  590
  #      division   0.7206  770
        outer_grid  302
      l_hartree           4
  ################################################################################
  #
  #  Definition of "minimal" basis
  #
  ################################################################################
  #     valence basis states
      valence      1  s   1.
  #     ion occupancy
      ion_occ      1  s   0.5
  ################################################################################
  #
  #  Suggested additional basis functions. For production calculations,
  #  uncomment them one after another (the most important basis functions are
  #  listed first).
  #
  ################################################################################
  #  "First tier" - improvements: -1014.90 meV to -62.69 meV
       hydro 2 s 2.1
       hydro 2 p 3.5
  #  "Second tier" - improvements: -12.89 meV to -1.83 meV
       hydro 1 s 0.85
       hydro 2 p 3.7
       hydro 2 s 1.2
       hydro 3 d 7
  #  "Third tier" - improvements: -0.25 meV to -0.12 meV
  #     hydro 4 f 11.2
  #     hydro 3 p 4.8
  #     hydro 4 d 9
  #     hydro 3 s 3.2
  
  ################################################################################
  #
  #  FHI-aims code project
  #  VB, Fritz-Haber Institut, 2007
  #
  #  Suggested "safe" defaults for O atom (to be pasted into control.in file)
  #  All values have been tested for a non-relativistic, non-spinpolarized O2
  #  molecule using the PW-LDA functional. Validity for PBE is expected.
  #
  #  Constructed for dimers: 1.0 A, 1.208 A, 1.5 A, 2.0 A, 3.0 A
  #
  ################################################################################
    species        O
  #     global species definitions
      nucleus             8
      mass                15.9994
      l_hartree           4
      cut_pot             4.0  2.0  1.0
      cut_free_atom       finite 8.0
      basis_dep_cutoff    1d-4  # 1d-4 is safe default - please check 5d-4 if you wish!
      logarithmic         0.00010000 100.00  1.0123
      radial_base         36 7.0
      radial_multiplier   2
       angular_grids specified
        division   0.4087  110
        division   0.5181  194
        division   0.6184  302
  #      division   0.7315  434
  #      division   0.7934  590
  #      division   0.9656  770
  #      division   1.4041  974
  #      outer_grid 974
        outer_grid 302
  ################################################################################
  #
  #  Definition of "minimal" basis
  #
  ################################################################################
  #     valence basis states
      valence      2  s   2.
      valence      2  p   4.
  #     ion occupancy
      ion_occ      2  s   1.
      ion_occ      2  p   3.
  ################################################################################
  #
  #  Suggested additional basis functions. For production calculations,
  #  uncomment them one after another (the most important basis functions are
  #  listed first).
  #
  ################################################################################
  #  "First tier" - improvements: -699.05 meV to -159.38 meV
       hydro 2 p 1.8
       hydro 3 d 7.6
       hydro 3 s 6.4
  #  "Second tier" - improvements: -49.91 meV to -5.39 meV
       hydro 4 f 11.6
       hydro 3 p 6.2
       hydro 3 d 5.6
       hydro 5 g 17.6
       hydro 1 s 0.75
  #  "Third tier" - improvements: -2.83 meV to -0.50 meV
  #     ionic 2 p auto
  #     hydro 4 f 10.8
  #     hydro 4 d 4.7
  #     hydro 2 s 6.8
  #  "Fourth tier" - improvements: -0.40 meV to -0.12 meV
  #     hydro 3 p 5
  #     hydro 3 s 3.3
  #     hydro 5 g 15.6
  #     hydro 4 f 17.6
  #     hydro 4 d 14
  # Further basis functions - -0.08 meV and below
  #     hydro 3 s 2.1
  #     hydro 4 d 11.6
  #     hydro 3 p 16
  #     hydro 2 s 17.2
  
  
  -----------------------------------------------------------------------
  Completed first pass over input file control.in .
  -----------------------------------------------------------------------
  
  
  -----------------------------------------------------------------------
  Parsing geometry.in (first pass over file, find array dimensions only).
  The contents of geometry.in will be repeated verbatim below
  unless switched off by setting 'verbatim_writeout .false.' .
  in the first line of geometry.in .
  -----------------------------------------------------------------------
  
  atom      -4.053030000      0.065001000     -1.525160000  O
  atom      -4.566710000      0.974813000     -1.912820000  H
  atom      -3.067820000      0.330172000     -1.477310000  H
  atom      -4.370360000     -0.049164000     -0.572274000  H
  atom      -5.293160000      2.192130000     -2.328800000  O
  atom      -4.829300000      2.988660000     -1.973850000  H
  atom      -5.428570000      2.328640000     -3.235170000  H
  atom      -1.645860000      0.870179000     -1.502250000  O
  atom      -1.568890000      1.501730000     -0.721051000  H
  atom      -0.824432000      0.282220000     -1.377720000  H
  atom      -1.975360000      2.858040000      0.453140000  O
  atom      -1.223550000      3.375850000      0.786238000  H
  atom      -2.537520000      2.567960000      1.156120000  H
  atom      -5.628340000      3.730740000      1.385610000  O
  atom      -6.090650000      4.418470000      1.860350000  H
  atom      -5.158540000      4.200260000      0.615875000  H
  
  -----------------------------------------------------------------------
  Completed first pass over input file geometry.in .
  -----------------------------------------------------------------------
  
 
  Basic array size parameters: 
  | Number of species                 :        2
  | Number of atoms                   :       16
  | Max. basis fn. angular momentum   :        4
  | Max. atomic/ionic basis occupied n:        2
  | Max. number of basis fn. types    :        2
  | Max. radial fns per species/type  :        8
  | Max. logarithmic grid size        :     1301
  | Max. radial integration grid size :       73
  | Max. angular integration grid size:      302
  | Max. angular grid division number :        8
  | Radial grid for Hartree potential :     1301
  | Number of spin channels           :        1

------------------------------------------------------------
          Reading file control.in.
------------------------------------------------------------
  XC: Using RPBE gradient-corrected functionals.
  Spin treatment: No spin polarisation.
  Scalar relativistic treatment of kinetic energy: on-site free-atom approximation to ZORA.
  Charge =   0.000000E+00: Neutral system requested explicitly.
  Using non-empirical van der Waals correction (Hirshfeld partitioning):
  Occupation type: Gaussian broadening, width =   0.100000E-01 eV.
  Using pulay charge density mixing.
  Pulay mixing - number of memorized iterations:   10
  Charge density mixing - mixing parameter:     0.1000
  Convergence accuracy of self-consistent charge density: 0.5000E-04
  Convergence accuracy of sum of eigenvalues: 0.5000E-02
  Convergence accuracy of total energy: 0.5000E-05
  Maximum number of s.-c. iterations  :  3000
  Kohn-Sham eigenvalues and eigenfunctions calculated by lapack diagonalisation (D&C).
  Number of empty states per atom:        8
  Threshold for basis singularities: 0.0000E+00
  Partition function in integrals calculations: rho / r^2
 Using packed matrix format           0
  Convergence accuracy of forces: 0.5000E-03
  Cleaning forces before final output.
  Hirshfeld charge analysis will be performed.
 
  Reading configuration options for species H                   .
  | Found nuclear charge :   1.0000
  | Found cutoff potl. onset [A], width [A], scale factor :    4.00000    2.00000    1.00000
  | Found cutoff specification for free atom: Cutoff potential begins at    8.00000 A.
  | Found logarithmic grid data [bohr] : 0.1000E-03 0.1000E+03 0.1012E+01
  | Threshold for basis-dependent cutoff potential is   0.100000E-03
  | Found data for basic radial integration grid :    24 points, outermost radius =    7.000 A
  | Found multiplier for basic radial grid :   2
  | Found angular grid specification: user-specified.
  | Specified grid contains     4 separate shells.
  | Check grid settings after all constraints further below.
  | Found l_max for Hartree potential  :   4
  | Found free-atom valence shell :  1 s   1.000
  | No ionic wave fns used. Skipping ion_occ.
  | Found hydrogenic basis function :  2 s   2.100
  | Found hydrogenic basis function :  2 p   3.500
  | Found hydrogenic basis function :  1 s   0.850
  | Found hydrogenic basis function :  2 p   3.700
  | Found hydrogenic basis function :  2 s   1.200
  | Found hydrogenic basis function :  3 d   7.000
  Species H                   : Missing cutoff potential type.
  Defaulting to exp(1/x)/(1-x)^2 type cutoff potential.
  Species H : On-site basis accuracy parameter (for Gram-Schmidt orthonormalisation) not specified.
  Using default value basis_acc =  0.1000000E-03.
  Species H                   : Using default innermost maximum threshold i_radial=  2 for radial functions.
  Species H                   : Basic radial grid will be enhanced according to radial_multiplier =   2, to contain    49 grid points.
 
  Reading configuration options for species O                   .
  | Found nuclear charge :   8.0000
  | Found atomic mass :    15.9994000000000      amu
  | Found l_max for Hartree potential  :   4
  | Found cutoff potl. onset [A], width [A], scale factor :    4.00000    2.00000    1.00000
  | Found cutoff specification for free atom: Cutoff potential begins at    8.00000 A.
  | Threshold for basis-dependent cutoff potential is   0.100000E-03
  | Found logarithmic grid data [bohr] : 0.1000E-03 0.1000E+03 0.1012E+01
  | Found data for basic radial integration grid :    36 points, outermost radius =    7.000 A
  | Found multiplier for basic radial grid :   2
  | Found angular grid specification: user-specified.
  | Specified grid contains     4 separate shells.
  | Check grid settings after all constraints further below.
  | Found free-atom valence shell :  2 s   2.000
  | Found free-atom valence shell :  2 p   4.000
  | No ionic wave fns used. Skipping ion_occ.
  | No ionic wave fns used. Skipping ion_occ.
  | Found hydrogenic basis function :  2 p   1.800
  | Found hydrogenic basis function :  3 d   7.600
  | Found hydrogenic basis function :  3 s   6.400
  | Found hydrogenic basis function :  4 f  11.600
  | Found hydrogenic basis function :  3 p   6.200
  | Found hydrogenic basis function :  3 d   5.600
  | Found hydrogenic basis function :  5 g  17.600
  | Found hydrogenic basis function :  1 s   0.750
  Species O                   : Missing cutoff potential type.
  Defaulting to exp(1/x)/(1-x)^2 type cutoff potential.
  Species O : On-site basis accuracy parameter (for Gram-Schmidt orthonormalisation) not specified.
  Using default value basis_acc =  0.1000000E-03.
  Species O                   : Using default innermost maximum threshold i_radial=  2 for radial functions.
  Species O                   : Basic radial grid will be enhanced according to radial_multiplier =   2, to contain    73 grid points.
 
  Finished reading input file 'control.in'. Consistency checks are next.
 
  Target number of points in a grid batch is not set. Defaulting to  100
  Method for grid partitioning is not set. Defaulting to parallel hash+maxmin partitioning.
  Batch size limit is not set. Defaulting to    200
  By default, will store active basis functions for each batch.
  If in need of memory, prune_basis_once .false. can be used to disable this option.
  communication_type for Hartree potential was not specified.
  Defaulting to calc_hartree .
  Pulay mixer: Number of initial linear mixing iterations not set.
  Defaulting to    0 iterations.
  Work space size for distributed Hartree potential not set.
  Defaulting to   0.200000E+03 MB.
  Algorithm-dependent basis array size parameters:
  | n_max_pulay                         :       10
  Geometry relaxation not requested: no relaxation will be performed.
  Handling of forces: Unphysical translation and rotation will be removed from forces.
  No accuracy limit for integral partition fn. given. Defaulting to 0.1000E-14.
  No threshold value for u(r) in integrations given. Defaulting to 0.1000E-05.
  No accuracy for occupation numbers given. Defaulting to 0.1000E-07.
  No threshold value for occupation numbers given. Defaulting to 0.0000E+00.
  No accuracy for fermi level given. Defaulting to 0.1000E-19.
  Maximum # of iterations to find E_F not set. Defaulting to  200.
  Will not use alltoall communication since running on < 1024 CPUs.
  Partitioning for Hartree potential was not defined. Using partition_type for integrals.
  | Reporting present value of keyword multip_moments_threshold  :       0.10000000E-09
  | This value may affect high angular momentum components of the Hartree potential in periodic systems.
  No q(lm)/r^(l+1) cutoff set for long-range Hartree potential.
  | Using default value of  0.100000E-09 .
  | Verify using the multipole_threshold keyword.
  Defaulting to new monopole extrapolation.
  Density update method: Loop over occupied states selected for charge density update.
------------------------------------------------------------


------------------------------------------------------------
          Reading geometry description geometry.in.
------------------------------------------------------------
  Input structure read successfully.
  The structure contains       16 atoms,  and a total of         51.000 electrons.

  Input geometry:
  | No unit cell requested.
  | Atomic structure:
  |       Atom                x [A]            y [A]            z [A]
  |    1: Species O             -4.053030         0.065001        -1.525160
  |    2: Species H             -4.566710         0.974813        -1.912820
  |    3: Species H             -3.067820         0.330172        -1.477310
  |    4: Species H             -4.370360        -0.049164        -0.572274
  |    5: Species O             -5.293160         2.192130        -2.328800
  |    6: Species H             -4.829300         2.988660        -1.973850
  |    7: Species H             -5.428570         2.328640        -3.235170
  |    8: Species O             -1.645860         0.870179        -1.502250
  |    9: Species H             -1.568890         1.501730        -0.721051
  |   10: Species H             -0.824432         0.282220        -1.377720
  |   11: Species O             -1.975360         2.858040         0.453140
  |   12: Species H             -1.223550         3.375850         0.786238
  |   13: Species H             -2.537520         2.567960         1.156120
  |   14: Species O             -5.628340         3.730740         1.385610
  |   15: Species H             -6.090650         4.418470         1.860350
  |   16: Species H             -5.158540         4.200260         0.615875
  |

  | The smallest distance between any two atoms is         0.92654057 AA.
  |
  | The first atom of this pair is atom number                      5 .
  | The second atom of this pair is atom number                     7 .

  Structure-dependent array size parameters: 
  | Maximum number of distinct radial functions  :       18
  | Maximum number of basis functions            :      360
  | Number of Kohn-Sham states (occupied + empty):       90
------------------------------------------------------------

------------------------------------------------------------
          Preparing all fixed parts of the calculation.
------------------------------------------------------------
  Determining machine precision:
    2.225073858507201E-308
  Setting up grids for atomic and cluster calculations.

  Creating wave function, potential, and density for free atoms.

  Species: H

  List of occupied orbitals and eigenvalues:
    n    l              occ      energy [Ha]    energy [eV]
    1    0           1.0000        -0.241408        -6.5691


  Species: O

  List of occupied orbitals and eigenvalues:
    n    l              occ      energy [Ha]    energy [eV]
    1    0           2.0000       -18.944147      -515.4965
    2    0           2.0000        -0.883529       -24.0421
    2    1           4.0000        -0.330176        -8.9845

  Creating fixed part of basis set: Ionic, confined, hydrogenic.
 
  H                    hydrogenic:
 
  List of hydrogenic basis orbitals: 
    n    l      effective z      eigenvalue [eV]  inner max. [A]     outer max. [A]     outer radius [A]   
    2    0         2.100000       -14.9965           0.193241           1.317192           5.372934
    2    1         3.500000       -41.6672           0.602363           0.602363           4.056010
    1    0         0.850000        -9.8292           0.624864           0.624864           5.372934
    2    1         3.700000       -46.5653           0.573616           0.573616           3.909951
    2    0         1.200000        -4.5995           0.334977           2.228160           5.505921
    3    2         7.000000       -74.0753           0.680692           0.680692           3.769152
 
 
  O                    hydrogenic:
 
  List of hydrogenic basis orbitals: 
    n    l      effective z      eigenvalue [eV]  inner max. [A]     outer max. [A]     outer radius [A]   
    2    1         1.800000       -11.0118           1.178546           1.178546           5.432516
    3    2         7.600000       -87.3182           0.624117           0.624117           3.541422
    3    0         6.400000       -61.9209           0.061166           1.081887           4.306510
    4    3        11.600000      -114.4238           0.731621           0.731621           3.584982
    3    1         6.200000       -58.1113           0.255677           1.030255           4.306510
    3    2         5.600000       -47.4081           0.847222           0.847222           4.413102
    5    4        17.600000      -168.5799           0.749730           0.749730           3.372413
    1    0         0.750000        -7.6499           0.705275           0.705275           5.366508
 

  Adding cutoff potential to free-atom effective potential.
  Creating atomic-like basis functions for current effective potential.

  Species H                   :

  List of atomic basis orbitals and eigenvalues:
    n    l      energy [Ha]    energy [eV]    outer radius [A]
    1    0        -0.241374        -6.5681       5.372934


  Species O                   :

  List of atomic basis orbitals and eigenvalues:
    n    l      energy [Ha]    energy [eV]    outer radius [A]
    1    0       -18.944147      -515.4965       1.415745
    2    0        -0.883529       -24.0421       5.048305
    2    1        -0.330173        -8.9845       5.301302

  Assembling full basis from fixed parts.
  | Species H :   atomic orbital   1 s accepted.
  | Species H :    hydro orbital   2 s accepted.
  | Species H :    hydro orbital   1 s accepted.
  | Species H :    hydro orbital   2 s accepted.
  | Species H :    hydro orbital   2 p accepted.
  | Species H :    hydro orbital   2 p accepted.
  | Species H :    hydro orbital   3 d accepted.
  | Species O :   atomic orbital   1 s accepted.
  | Species O :    hydro orbital   3 s accepted.
  | Species O :   atomic orbital   2 s accepted.
  | Species O :    hydro orbital   1 s accepted.
  | Species O :    hydro orbital   3 p accepted.
  | Species O :   atomic orbital   2 p accepted.
  | Species O :    hydro orbital   2 p accepted.
  | Species O :    hydro orbital   3 d accepted.
  | Species O :    hydro orbital   3 d accepted.
  | Species O :    hydro orbital   4 f accepted.
  | Species O :    hydro orbital   5 g accepted.
 
  Basis size parameters after reduction:
  | Total number of radial functions:       18
  | Total number of basis functions :      360
 
  Testing on-site integration grid accuracy.
  |  Species  Function  <phi|h_atom|phi> (log., in eV)  <phi|h_atom|phi> (rad., in eV)
           1        1                 -6.5683835025                 -6.5684759159
           1        2                 13.3711789951                 13.3708738703
           1        3                 23.6590910787                 23.6532055418
           1        4                 16.2963827186                 16.1870710655 ***
           1        5                 28.7627214838                 28.7627215090
           1        6                 59.5965249172                 59.5965950857
           1        7                 60.2220506392                 60.2220503827
           2        8               -515.4964576505               -515.4964530710
           2        9                 15.3030791347                 15.3030722972
           2       10                -21.7296094581                -21.7296135470
           2       11                 14.2969371730                 14.2969701621
           2       12                 21.0679693190                 21.0679697493
           2       13                 -2.3833606469                 -2.3833613176
           2       14                 13.7067136422                 13.7066766629
           2       15                 45.8013116808                 45.8013116965
           2       16                 52.2309815402                 52.2309831494
           2       17                 85.4120732416                 85.4120732763
           2       18                142.1019167745                142.1019167817
 * Note: Onsite integrals marked "***" above are less accurate than
 * onsite_accuracy_threshold =    0.03000 eV. Usually, this is harmless.
 * When in doubt, tighten the "radial" and/or "radial_multiplier" flags to check.

  Preparing densities etc. for the partition functions (integrals / Hartree potential).

  Preparations completed.
  max(cpu_time)          :      0.172 s.
  Wall clock time (cpu1) :      0.509 s.
------------------------------------------------------------

------------------------------------------------------------
          Begin self-consistency loop: Initialization.

          Date     :  20150727, Time     :  124143.549
------------------------------------------------------------

  Initializing index lists of integration centers etc. from given atomic structure:
  | Number of centers in hartree potential         :        16
  | Number of centers in hartree multipole         :        16
  | Number of centers in electron density summation:        16
  | Number of centers in basis integrals           :        16
  | Number of centers in integrals                 :        16
  Partitioning the integration grid into batches with parallel hashing+maxmin method.
  | Number of batches:     2144
  | Maximal batch size:     151
  | Minimal batch size:      51
  | Average batch size:      97.157
  | Standard deviation of batch sizes:      30.657

  Integration load balanced across     8 MPI tasks.
  Work distribution over tasks is as follows:
  Task     0 has      25953 integration points.
  Task     1 has      26074 integration points.
  Task     2 has      26068 integration points.
  Task     3 has      26049 integration points.
  Task     4 has      26023 integration points.
  Task     5 has      26049 integration points.
  Task     6 has      26067 integration points.
  Task     7 has      26021 integration points.
  Initializing partition tables, free-atom densities, potentials, etc. across the integration grid (initialize_grid_storage).
  | Net number of integration points:   208304
  | of which are non-zero points    :   207744
  Obtaining max. number of non-zero basis functions in each batch (get_n_compute_maxes).
  | Maximal number of non-zero basis functions:      355 in task     0
  | Maximal number of non-zero basis functions:      356 in task     1
  | Maximal number of non-zero basis functions:      356 in task     2
  | Maximal number of non-zero basis functions:      356 in task     3
  | Maximal number of non-zero basis functions:      355 in task     4
  | Maximal number of non-zero basis functions:      356 in task     5
  | Maximal number of non-zero basis functions:      356 in task     6
  | Maximal number of non-zero basis functions:      351 in task     7
  Integrating Hamiltonian matrix: batch-based integration.
  Time summed over all CPUs for integration: real work        7.755 s, elapsed        7.916 s
  Integrating overlap matrix.
  Time summed over all CPUs for integration: real work        4.155 s, elapsed        4.259 s

  Updating Kohn-Sham eigenvalues, eigenvectors, occupation numbers, and Fermi level.
  Solving generalized eigenproblem
  Updating Kohn-Sham eigenvalues and eigenfunctions.
  Transforming overlap matrix and checking for singularities.
  Overlap matrix is nonsingular:
  | Lowest eigenvalue:  0.230450E-03
  Solving real generalised eigenvalue problem by standard LAPACK (fast)
  Determining occupation numbers for Kohn-Sham eigenstates.
  | Chemical potential (Fermi level) in eV                 : -.27690389E+01
  | Error in electron count due to remaining E_F inaccuracy: 0.00000000E+00
  | Maximum occupation number of highest empty state:  0.00E+00

  Writing Kohn-Sham eigenvalues.

  State    Occupation    Eigenvalue [Ha]    Eigenvalue [eV]
      1       2.00000         -19.065148         -518.78906
      2       2.00000         -19.064863         -518.78131
      3       2.00000         -19.057213         -518.57316
      4       2.00000         -19.044521         -518.22777
      5       2.00000         -19.042580         -518.17497
      6       2.00000          -1.129216          -30.72754
      7       2.00000          -1.114600          -30.32981
      8       2.00000          -1.107659          -30.14093
      9       2.00000          -1.089123          -29.63655
     10       2.00000          -1.081605          -29.43198
     11       2.00000          -0.650930          -17.71271
     12       2.00000          -0.649309          -17.66859
     13       2.00000          -0.639878          -17.41195
     14       2.00000          -0.622206          -16.93109
     15       2.00000          -0.618298          -16.82473
     16       2.00000          -0.607607          -16.53382
     17       2.00000          -0.533349          -14.51317
     18       2.00000          -0.514704          -14.00581
     19       2.00000          -0.501589          -13.64894
     20       2.00000          -0.500735          -13.62571
     21       2.00000          -0.485160          -13.20188
     22       2.00000          -0.452610          -12.31613
     23       2.00000          -0.443526          -12.06896
     24       2.00000          -0.435696          -11.85588
     25       2.00000          -0.430179          -11.70576
     26       1.00000          -0.101760           -2.76904
     27       0.00000          -0.072234           -1.96560
     28       0.00000          -0.063258           -1.72134
     29       0.00000          -0.046754           -1.27225
     30       0.00000          -0.042741           -1.16303
     31       0.00000          -0.011990           -0.32626
     32       0.00000           0.003223            0.08769
     33       0.00000           0.022764            0.61945
     34       0.00000           0.034292            0.93314
     35       0.00000           0.043224            1.17618
     36       0.00000           0.053214            1.44803
     37       0.00000           0.068073            1.85235
     38       0.00000           0.073282            1.99411
     39       0.00000           0.088612            2.41126
     40       0.00000           0.094768            2.57876
     41       0.00000           0.095753            2.60556
     42       0.00000           0.100941            2.74676
     43       0.00000           0.102676            2.79394
     44       0.00000           0.115761            3.15002
     45       0.00000           0.126036            3.42961
     46       0.00000           0.134409            3.65745
     47       0.00000           0.136768            3.72165
     48       0.00000           0.140008            3.80982
     49       0.00000           0.145685            3.96428
     50       0.00000           0.168721            4.59114
     51       0.00000           0.173186            4.71263
     52       0.00000           0.179494            4.88429
     53       0.00000           0.194362            5.28887
     54       0.00000           0.212618            5.78562
     55       0.00000           0.229114            6.23452
     56       0.00000           0.234045            6.36870
     57       0.00000           0.241918            6.58292
     58       0.00000           0.258692            7.03937
     59       0.00000           0.285876            7.77907
     60       0.00000           0.295794            8.04895
     61       0.00000           0.298596            8.12521
     62       0.00000           0.312889            8.51414
     63       0.00000           0.341745            9.29934
     64       0.00000           0.354120            9.63609
     65       0.00000           0.366079            9.96153
     66       0.00000           0.369113           10.04408
     67       0.00000           0.381729           10.38738
     68       0.00000           0.388528           10.57240
     69       0.00000           0.394887           10.74541
     70       0.00000           0.418388           11.38492
     71       0.00000           0.426913           11.61688
     72       0.00000           0.428556           11.66160
     73       0.00000           0.440702           11.99210
     74       0.00000           0.453802           12.34859
     75       0.00000           0.458232           12.46911
     76       0.00000           0.486678           13.24319
     77       0.00000           0.509755           13.87115
     78       0.00000           0.514866           14.01021
     79       0.00000           0.530946           14.44778
     80       0.00000           0.545592           14.84631
     81       0.00000           0.550328           14.97518
     82       0.00000           0.558754           15.20448
     83       0.00000           0.589996           16.05460
     84       0.00000           0.620765           16.89187
     85       0.00000           0.638760           17.38153
     86       0.00000           0.676407           18.40598
     87       0.00000           0.708643           19.28317
     88       0.00000           0.740395           20.14716
     89       0.00000           0.754418           20.52875
     90       0.00000           0.766702           20.86303

  Highest occupied state (VBM) at     -2.76903887 eV
  | Occupation number:      1.00000000

  Lowest unoccupied state (CBM) at    -2.76903887 eV
  | Occupation number:      1.00000000

  Overall HOMO-LUMO gap:      0.00000000 eV.
  Calculating total energy contributions from superposition of free atom densities.

  Total energy components:
  | Sum of eigenvalues            :        -217.86636723 Ha       -5928.44548825 eV
  | XC energy correction          :         -45.95315482 Ha       -1250.44896473 eV
  | XC potential correction       :          58.73000829 Ha        1598.12483726 eV
  | Free-atom electrostatic energy:        -178.45615474 Ha       -4856.03904304 eV
  | Hartree energy correction     :           0.00000000 Ha           0.00000000 eV
  | van der Waals energy corr.    :           0.00000000 Ha           0.00000000 eV
  | Entropy correction            :          -0.00010367 Ha          -0.00282095 eV
  | ---------------------------
  | Total energy                  :        -383.54566850 Ha      -10436.80865876 eV
  | Total energy, T -> 0          :        -383.54577216 Ha      -10436.81147971 eV  <-- do not rely on this value for anything but (periodic) metals
  | Electronic free energy        :        -383.54587583 Ha      -10436.81430066 eV

  Derived energy quantities:
  | Kinetic energy                :         379.87561392 Ha       10336.94139243 eV
  | Electrostatic energy          :        -717.46812759 Ha      -19523.30108646 eV
  | Energy correction for multipole
  | error in Hartree potential    :           0.00000000 Ha           0.00000000 eV
  | Sum of eigenvalues per atom                           :        -370.52784302 eV
  | Total energy (T->0) per atom                          :        -652.30071748 eV  <-- do not rely on this value for anything but (periodic) metals
  | Electronic free energy per atom                       :        -652.30089379 eV
  Initialize hartree_potential_storage
  Max. number of atoms included in rho_multipole:           16

  End scf initialization - timings             :  max(cpu_time)    wall_clock(cpu1)
  | Time for scf. initialization               :        2.123 s           2.122 s
  | Boundary condition initialization          :        0.000 s           0.000 s
  | Integration                                :        1.526 s           1.526 s
  | Solution of K.-S. eqns.                    :        0.213 s           0.213 s
  | Grid partitioning                          :        0.147 s           0.147 s
  | Preloading free-atom quantities on grid    :        0.014 s           0.013 s
  | Free-atom superposition energy             :        0.073 s           0.073 s
  | Total energy evaluation                    :        0.000 s           0.000 s
------------------------------------------------------------

------------------------------------------------------------
          Begin self-consistency iteration #    1

  Date     :  20150727, Time     :  124145.671
------------------------------------------------------------
  Evaluating new KS density.
  Integration grid: deviation in total charge (<rho> - N_e) =   2.842171E-14
  Pulay mixing of updated and previous charge densities.

  Evaluating partitioned Hartree potential by multipole expansion.
  | Analytical far-field extrapolation by fixed multipoles:
  | Hartree multipole sum: apparent total charge =  -0.177950E-05
  Summing up the Hartree potential.
  Time summed over all CPUs for potential: real work        2.893 s, elapsed        2.900 s
  | RMS charge density error from multipole expansion :   0.168642E-02

  Integrating Hamiltonian matrix: batch-based integration.
  Time summed over all CPUs for integration: real work        7.735 s, elapsed        7.903 s

  Updating Kohn-Sham eigenvalues, eigenvectors, occupation numbers, and Fermi level.
  Solving generalized eigenproblem
  Updating Kohn-Sham eigenvalues and eigenfunctions.
  Solving real generalised eigenvalue problem by standard LAPACK (fast)
  Determining occupation numbers for Kohn-Sham eigenstates.
  | Chemical potential (Fermi level) in eV                 : -.25454006E+01
  | Error in electron count due to remaining E_F inaccuracy: 0.21316282E-12
  | Maximum occupation number of highest empty state:  0.00E+00

  Writing Kohn-Sham eigenvalues.

  State    Occupation    Eigenvalue [Ha]    Eigenvalue [eV]
      1       2.00000         -19.011630         -517.33276
      2       2.00000         -18.995352         -516.88982
      3       2.00000         -18.979691         -516.46368
      4       2.00000         -18.974003         -516.30889
      5       2.00000         -18.960955         -515.95385
      6       2.00000          -1.101980          -29.98640
      7       2.00000          -1.083444          -29.48200
      8       2.00000          -1.069711          -29.10833
      9       2.00000          -1.047966          -28.51661
     10       2.00000          -1.045910          -28.46065
     11       2.00000          -0.622482          -16.93859
     12       2.00000          -0.617784          -16.81077
     13       2.00000          -0.616068          -16.76407
     14       2.00000          -0.599698          -16.31862
     15       2.00000          -0.580869          -15.80626
     16       2.00000          -0.578651          -15.74590
     17       2.00000          -0.503252          -13.69419
     18       2.00000          -0.481307          -13.09702
     19       2.00000          -0.464725          -12.64580
     20       2.00000          -0.458584          -12.47871
     21       2.00000          -0.455953          -12.40712
     22       2.00000          -0.418909          -11.39909
     23       2.00000          -0.404647          -11.01100
     24       2.00000          -0.400406          -10.89561
     25       2.00000          -0.385313          -10.48490
     26       1.00000          -0.093542           -2.54540
     27       0.00000          -0.063895           -1.73867
     28       0.00000          -0.055591           -1.51270
     29       0.00000          -0.040918           -1.11345
     30       0.00000          -0.035020           -0.95293
     31       0.00000          -0.004390           -0.11945
     32       0.00000           0.010456            0.28453
     33       0.00000           0.032127            0.87423
     34       0.00000           0.041192            1.12089
     35       0.00000           0.053712            1.46158
     36       0.00000           0.057258            1.55808
     37       0.00000           0.074904            2.03824
     38       0.00000           0.082048            2.23264
     39       0.00000           0.097881            2.66348
     40       0.00000           0.102175            2.78033
     41       0.00000           0.103525            2.81705
     42       0.00000           0.107093            2.91415
     43       0.00000           0.112122            3.05098
     44       0.00000           0.125927            3.42666
     45       0.00000           0.135248            3.68027
     46       0.00000           0.141737            3.85685
     47       0.00000           0.145372            3.95578
     48       0.00000           0.149362            4.06434
     49       0.00000           0.155855            4.24103
     50       0.00000           0.178105            4.84648
     51       0.00000           0.179794            4.89244
     52       0.00000           0.188203            5.12127
     53       0.00000           0.202819            5.51899
     54       0.00000           0.219227            5.96546
     55       0.00000           0.236560            6.43714
     56       0.00000           0.241046            6.55921
     57       0.00000           0.249632            6.79282
     58       0.00000           0.266452            7.25054
     59       0.00000           0.293080            7.97512
     60       0.00000           0.302499            8.23140
     61       0.00000           0.303203            8.25058
     62       0.00000           0.320372            8.71776
     63       0.00000           0.349951            9.52265
     64       0.00000           0.361466            9.83598
     65       0.00000           0.375179           10.20915
     66       0.00000           0.377541           10.27343
     67       0.00000           0.389225           10.59136
     68       0.00000           0.395449           10.76071
     69       0.00000           0.403087           10.96854
     70       0.00000           0.425611           11.58146
     71       0.00000           0.435675           11.85531
     72       0.00000           0.437897           11.91579
     73       0.00000           0.448219           12.19665
     74       0.00000           0.462968           12.59800
     75       0.00000           0.468184           12.73992
     76       0.00000           0.495987           13.49650
     77       0.00000           0.518763           14.11626
     78       0.00000           0.526543           14.32797
     79       0.00000           0.541732           14.74127
     80       0.00000           0.555945           15.12802
     81       0.00000           0.560740           15.25851
     82       0.00000           0.568065           15.45783
     83       0.00000           0.600264           16.33402
     84       0.00000           0.629260           17.12304
     85       0.00000           0.649585           17.67611
     86       0.00000           0.686710           18.68632
     87       0.00000           0.719237           19.57144
     88       0.00000           0.754760           20.53806
     89       0.00000           0.764178           20.79434
     90       0.00000           0.776602           21.13241

  Highest occupied state (VBM) at     -2.54540058 eV
  | Occupation number:      1.00000000

  Lowest unoccupied state (CBM) at    -1.73867017 eV
  | Occupation number:      0.00000000

  Overall HOMO-LUMO gap:      0.80673040 eV.

  Total energy components:
  | Sum of eigenvalues            :        -215.81212525 Ha       -5872.54672004 eV
  | XC energy correction          :         -46.17621184 Ha       -1256.51865504 eV
  | XC potential correction       :          59.02142427 Ha        1606.05466944 eV
  | Free-atom electrostatic energy:        -178.45615474 Ha       -4856.03904304 eV
  | Hartree energy correction     :          -1.99969424 Ha         -54.41444886 eV
  | van der Waals energy corr.    :           0.00000000 Ha           0.00000000 eV
  | Entropy correction            :          -0.00010367 Ha          -0.00282095 eV
  | ---------------------------
  | Total energy                  :        -383.42276181 Ha      -10433.46419754 eV
  | Total energy, T -> 0          :        -383.42286547 Ha      -10433.46701849 eV  <-- do not rely on this value for anything but (periodic) metals
  | Electronic free energy        :        -383.42296914 Ha      -10433.46983944 eV

  Derived energy quantities:
  | Kinetic energy                :         381.23766335 Ha       10374.00464343 eV
  | Electrostatic energy          :        -718.48421332 Ha      -19550.95018593 eV
  | Energy correction for multipole
  | error in Hartree potential    :           0.00026967 Ha           0.00733802 eV
  | Sum of eigenvalues per atom                           :        -367.03417000 eV
  | Total energy (T->0) per atom                          :        -652.09168866 eV  <-- do not rely on this value for anything but (periodic) metals
  | Electronic free energy per atom                       :        -652.09186496 eV

  Self-consistency convergence accuracy:
  | Change of charge density      : 0.6407E+00
  | Change of sum of eigenvalues  : 0.5590E+02 eV
  | Change of total energy        : 0.3344E+01 eV

  End self-consistency iteration #     1       :  max(cpu_time)    wall_clock(cpu1)
  | Time for this iteration                    :        2.073 s           2.073 s
  | Charge density update                      :        0.653 s           0.654 s
  | Density mixing                             :        0.004 s           0.003 s
  | Hartree multipole update                   :        0.005 s           0.005 s
  | Hartree multipole summation                :        0.364 s           0.363 s
  | Integration                                :        0.989 s           0.989 s
  | Solution of K.-S. eqns.                    :        0.057 s           0.056 s
  | Total energy evaluation                    :        0.000 s           0.000 s
------------------------------------------------------------

------------------------------------------------------------
          Begin self-consistency iteration #    2

  Date     :  20150727, Time     :  124147.744
------------------------------------------------------------
  Evaluating new KS density.
  Integration grid: deviation in total charge (<rho> - N_e) =   2.629008E-13
  Pulay mixing of updated and previous charge densities.

  Evaluating partitioned Hartree potential by multipole expansion.
  | Analytical far-field extrapolation by fixed multipoles:
  | Hartree multipole sum: apparent total charge =  -0.590939E-05
  Summing up the Hartree potential.
  Time summed over all CPUs for potential: real work        2.893 s, elapsed        2.900 s
  | RMS charge density error from multipole expansion :   0.686441E-02

  Integrating Hamiltonian matrix: batch-based integration.
  Time summed over all CPUs for integration: real work        7.722 s, elapsed        7.878 s

  Updating Kohn-Sham eigenvalues, eigenvectors, occupation numbers, and Fermi level.
  Solving generalized eigenproblem
  Updating Kohn-Sham eigenvalues and eigenfunctions.
  Solving real generalised eigenvalue problem by standard LAPACK (fast)
  Determining occupation numbers for Kohn-Sham eigenstates.
  | Chemical potential (Fermi level) in eV                 : -.20248675E+01
  | Error in electron count due to remaining E_F inaccuracy: 0.00000000E+00
  | Maximum occupation number of highest empty state:  0.00E+00

  Highest occupied state (VBM) at     -2.02486750 eV
  | Occupation number:      1.00000000

  Lowest unoccupied state (CBM) at    -2.02486750 eV
  | Occupation number:      1.00000000

  Overall HOMO-LUMO gap:      0.00000000 eV.

  Total energy components:
  | Sum of eigenvalues            :        -210.86389715 Ha       -5737.89858257 eV
  | XC energy correction          :         -46.74125953 Ha       -1271.89438507 eV
  | XC potential correction       :          59.75810113 Ha        1626.10066676 eV
  | Free-atom electrostatic energy:        -178.45615474 Ha       -4856.03904304 eV
  | Hartree energy correction     :          -6.97996066 Ha        -189.93439319 eV
  | van der Waals energy corr.    :           0.00000000 Ha           0.00000000 eV
  | Entropy correction            :          -0.00010367 Ha          -0.00282095 eV
  | ---------------------------
  | Total energy                  :        -383.28317095 Ha      -10429.66573710 eV
  | Total energy, T -> 0          :        -383.28327462 Ha      -10429.66855805 eV  <-- do not rely on this value for anything but (periodic) metals
  | Electronic free energy        :        -383.28337829 Ha      -10429.67137900 eV

  Derived energy quantities:
  | Kinetic energy                :         384.09090856 Ha       10451.64539584 eV
  | Electrostatic energy          :        -720.63281998 Ha      -19609.41674787 eV
  | Energy correction for multipole
  | error in Hartree potential    :           0.00020726 Ha           0.00563980 eV
  | Sum of eigenvalues per atom                           :        -358.61866141 eV
  | Total energy (T->0) per atom                          :        -651.85428488 eV  <-- do not rely on this value for anything but (periodic) metals
  | Electronic free energy per atom                       :        -651.85446119 eV

  Self-consistency convergence accuracy:
  | Change of charge density      : 0.4870E+00
  | Change of sum of eigenvalues  : 0.1346E+03 eV
  | Change of total energy        : 0.3798E+01 eV

  End self-consistency iteration #     2       :  max(cpu_time)    wall_clock(cpu1)
  | Time for this iteration                    :        2.066 s           2.066 s
  | Charge density update                      :        0.648 s           0.648 s
  | Density mixing                             :        0.006 s           0.006 s
  | Hartree multipole update                   :        0.005 s           0.005 s
  | Hartree multipole summation                :        0.363 s           0.364 s
  | Integration                                :        0.987 s           0.986 s
  | Solution of K.-S. eqns.                    :        0.057 s           0.056 s
  | Total energy evaluation                    :        0.000 s           0.000 s
------------------------------------------------------------

------------------------------------------------------------
          Begin self-consistency iteration #    3

  Date     :  20150727, Time     :  124149.810
------------------------------------------------------------
  Evaluating new KS density.
  Integration grid: deviation in total charge (<rho> - N_e) =   7.105427E-15
  Pulay mixing of updated and previous charge densities.

  Evaluating partitioned Hartree potential by multipole expansion.
  | Analytical far-field extrapolation by fixed multipoles:
  | Hartree multipole sum: apparent total charge =  -0.801876E-05
  Summing up the Hartree potential.
  Time summed over all CPUs for potential: real work        2.893 s, elapsed        2.901 s
  | RMS charge density error from multipole expansion :   0.141111E-01

  Integrating Hamiltonian matrix: batch-based integration.
  Time summed over all CPUs for integration: real work        7.722 s, elapsed        7.912 s

  Updating Kohn-Sham eigenvalues, eigenvectors, occupation numbers, and Fermi level.
  Solving generalized eigenproblem
  Updating Kohn-Sham eigenvalues and eigenfunctions.
  Solving real generalised eigenvalue problem by standard LAPACK (fast)
  Determining occupation numbers for Kohn-Sham eigenstates.
  | Chemical potential (Fermi level) in eV                 : -.19824064E+01
  | Error in electron count due to remaining E_F inaccuracy: -.20882851E-10
  | Maximum occupation number of highest empty state:  0.00E+00

  Highest occupied state (VBM) at     -7.58103489 eV
  | Occupation number:      2.00000000

  Lowest unoccupied state (CBM) at    -1.98240644 eV
  | Occupation number:      1.00000000

  Overall HOMO-LUMO gap:      5.59862845 eV.

  Total energy components:
  | Sum of eigenvalues            :        -211.24380150 Ha       -5748.23630593 eV
  | XC energy correction          :         -46.72591312 Ha       -1271.47678809 eV
  | XC potential correction       :          59.72929131 Ha        1625.31671175 eV
  | Free-atom electrostatic energy:        -178.45615474 Ha       -4856.03904304 eV
  | Hartree energy correction     :          -6.58592143 Ha        -179.21204026 eV
  | van der Waals energy corr.    :           0.00000000 Ha           0.00000000 eV
  | Entropy correction            :          -0.00010367 Ha          -0.00282095 eV
  | ---------------------------
  | Total energy                  :        -383.28249948 Ha      -10429.64746556 eV
  | Total energy, T -> 0          :        -383.28260315 Ha      -10429.65028651 eV  <-- do not rely on this value for anything but (periodic) metals
  | Electronic free energy        :        -383.28270682 Ha      -10429.65310746 eV

  Derived energy quantities:
  | Kinetic energy                :         382.20782373 Ha       10400.40405051 eV
  | Electrostatic energy          :        -718.76441009 Ha      -19558.57472798 eV
  | Energy correction for multipole
  | error in Hartree potential    :          -0.00418994 Ha          -0.11401413 eV
  | Sum of eigenvalues per atom                           :        -359.26476912 eV
  | Total energy (T->0) per atom                          :        -651.85314291 eV  <-- do not rely on this value for anything but (periodic) metals
  | Electronic free energy per atom                       :        -651.85331922 eV

  Self-consistency convergence accuracy:
  | Change of charge density      : 0.2366E+00
  | Change of sum of eigenvalues  : -.1034E+02 eV
  | Change of total energy        : 0.1827E-01 eV

  End self-consistency iteration #     3       :  max(cpu_time)    wall_clock(cpu1)
  | Time for this iteration                    :        2.068 s           2.068 s
  | Charge density update                      :        0.644 s           0.644 s
  | Density mixing                             :        0.007 s           0.007 s
  | Hartree multipole update                   :        0.005 s           0.005 s
  | Hartree multipole summation                :        0.364 s           0.363 s
  | Integration                                :        0.990 s           0.991 s
  | Solution of K.-S. eqns.                    :        0.058 s           0.057 s
  | Total energy evaluation                    :        0.000 s           0.000 s
------------------------------------------------------------

------------------------------------------------------------
          Begin self-consistency iteration #    4

  Date     :  20150727, Time     :  124151.878
------------------------------------------------------------
  Evaluating new KS density.
  Integration grid: deviation in total charge (<rho> - N_e) =  -2.086864E-11
  Pulay mixing of updated and previous charge densities.

  Evaluating partitioned Hartree potential by multipole expansion.
  | Analytical far-field extrapolation by fixed multipoles:
  | Hartree multipole sum: apparent total charge =  -0.955715E-05
  Summing up the Hartree potential.
  Time summed over all CPUs for potential: real work        2.892 s, elapsed        2.900 s
  | RMS charge density error from multipole expansion :   0.173131E-01

  Integrating Hamiltonian matrix: batch-based integration.
  Time summed over all CPUs for integration: real work        7.712 s, elapsed        7.880 s

  Updating Kohn-Sham eigenvalues, eigenvectors, occupation numbers, and Fermi level.
  Solving generalized eigenproblem
  Updating Kohn-Sham eigenvalues and eigenfunctions.
  Solving real generalised eigenvalue problem by standard LAPACK (fast)
  Determining occupation numbers for Kohn-Sham eigenstates.
  | Chemical potential (Fermi level) in eV                 : -.18644265E+01
  | Error in electron count due to remaining E_F inaccuracy: 0.36237680E-11
  | Maximum occupation number of highest empty state:  0.00E+00

  Highest occupied state (VBM) at     -1.86442652 eV
  | Occupation number:      1.00000000

  Lowest unoccupied state (CBM) at    -1.06530546 eV
  | Occupation number:      0.00000000

  Overall HOMO-LUMO gap:      0.79912106 eV.

  Total energy components:
  | Sum of eigenvalues            :        -210.17596615 Ha       -5719.17902761 eV
  | XC energy correction          :         -46.86976494 Ha       -1275.39119531 eV
  | XC potential correction       :          59.91466447 Ha        1630.36097201 eV
  | Free-atom electrostatic energy:        -178.45615474 Ha       -4856.03904304 eV
  | Hartree energy correction     :          -7.68901408 Ha        -209.22871859 eV
  | van der Waals energy corr.    :           0.00000000 Ha           0.00000000 eV
  | Entropy correction            :          -0.00010367 Ha          -0.00282095 eV
  | ---------------------------
  | Total energy                  :        -383.27623545 Ha      -10429.47701254 eV
  | Total energy, T -> 0          :        -383.27633912 Ha      -10429.47983348 eV  <-- do not rely on this value for anything but (periodic) metals
  | Electronic free energy        :        -383.27644279 Ha      -10429.48265443 eV

  Derived energy quantities:
  | Kinetic energy                :         382.35618530 Ha       10404.44117419 eV
  | Electrostatic energy          :        -718.76265581 Ha      -19558.52699142 eV
  | Energy correction for multipole
  | error in Hartree potential    :          -0.00547088 Ha          -0.14887028 eV
  | Sum of eigenvalues per atom                           :        -357.44868923 eV
  | Total energy (T->0) per atom                          :        -651.84248959 eV  <-- do not rely on this value for anything but (periodic) metals
  | Electronic free energy per atom                       :        -651.84266590 eV

  Self-consistency convergence accuracy:
  | Change of charge density      : 0.1128E+00
  | Change of sum of eigenvalues  : 0.2906E+02 eV
  | Change of total energy        : 0.1705E+00 eV

  End self-consistency iteration #     4       :  max(cpu_time)    wall_clock(cpu1)
  | Time for this iteration                    :        2.066 s           2.066 s
  | Charge density update                      :        0.644 s           0.644 s
  | Density mixing                             :        0.008 s           0.009 s
  | Hartree multipole update                   :        0.005 s           0.005 s
  | Hartree multipole summation                :        0.364 s           0.363 s
  | Integration                                :        0.986 s           0.987 s
  | Solution of K.-S. eqns.                    :        0.058 s           0.057 s
  | Total energy evaluation                    :        0.000 s           0.001 s
------------------------------------------------------------

------------------------------------------------------------
          Begin self-consistency iteration #    5

  Date     :  20150727, Time     :  124153.944
------------------------------------------------------------
  Evaluating new KS density.
  Integration grid: deviation in total charge (<rho> - N_e) =   3.652190E-12
  Pulay mixing of updated and previous charge densities.

  Evaluating partitioned Hartree potential by multipole expansion.
  | Analytical far-field extrapolation by fixed multipoles:
  | Hartree multipole sum: apparent total charge =  -0.984067E-05
  Summing up the Hartree potential.
  Time summed over all CPUs for potential: real work        2.892 s, elapsed        2.900 s
  | RMS charge density error from multipole expansion :   0.179859E-01

  Integrating Hamiltonian matrix: batch-based integration.
  Time summed over all CPUs for integration: real work        7.707 s, elapsed        7.871 s

  Updating Kohn-Sham eigenvalues, eigenvectors, occupation numbers, and Fermi level.
  Solving generalized eigenproblem
  Updating Kohn-Sham eigenvalues and eigenfunctions.
  Solving real generalised eigenvalue problem by standard LAPACK (fast)
  Determining occupation numbers for Kohn-Sham eigenstates.
  | Chemical potential (Fermi level) in eV                 : -.18523813E+01
  | Error in electron count due to remaining E_F inaccuracy: -.22168933E-11
  | Maximum occupation number of highest empty state:  0.00E+00

  Highest occupied state (VBM) at     -6.67737817 eV
  | Occupation number:      2.00000000

  Lowest unoccupied state (CBM) at    -1.85238127 eV
  | Occupation number:      1.00000000

  Overall HOMO-LUMO gap:      4.82499690 eV.

  Total energy components:
  | Sum of eigenvalues            :        -210.04271737 Ha       -5715.55314371 eV
  | XC energy correction          :         -46.88944103 Ha       -1275.92660898 eV
  | XC potential correction       :          59.93964713 Ha        1631.04078478 eV
  | Free-atom electrostatic energy:        -178.45615474 Ha       -4856.03904304 eV
  | Hartree energy correction     :          -7.82729415 Ha        -212.99151058 eV
  | van der Waals energy corr.    :           0.00000000 Ha           0.00000000 eV
  | Entropy correction            :          -0.00010367 Ha          -0.00282095 eV
  | ---------------------------
  | Total energy                  :        -383.27596016 Ha      -10429.46952152 eV
  | Total energy, T -> 0          :        -383.27606383 Ha      -10429.47234247 eV  <-- do not rely on this value for anything but (periodic) metals
  | Electronic free energy        :        -383.27616750 Ha      -10429.47516342 eV

  Derived energy quantities:
  | Kinetic energy                :         382.39109200 Ha       10405.39103382 eV
  | Electrostatic energy          :        -718.77761113 Ha      -19558.93394636 eV
  | Energy correction for multipole
  | error in Hartree potential    :          -0.00589057 Ha          -0.16029068 eV
  | Sum of eigenvalues per atom                           :        -357.22207148 eV
  | Total energy (T->0) per atom                          :        -651.84202140 eV  <-- do not rely on this value for anything but (periodic) metals
  | Electronic free energy per atom                       :        -651.84219771 eV

  Self-consistency convergence accuracy:
  | Change of charge density      : 0.2971E-01
  | Change of sum of eigenvalues  : 0.3626E+01 eV
  | Change of total energy        : 0.7491E-02 eV

  End self-consistency iteration #     5       :  max(cpu_time)    wall_clock(cpu1)
  | Time for this iteration                    :        2.067 s           2.066 s
  | Charge density update                      :        0.645 s           0.645 s
  | Density mixing                             :        0.010 s           0.010 s
  | Hartree multipole update                   :        0.005 s           0.005 s
  | Hartree multipole summation                :        0.363 s           0.363 s
  | Integration                                :        0.986 s           0.986 s
  | Solution of K.-S. eqns.                    :        0.056 s           0.057 s
  | Total energy evaluation                    :        0.000 s           0.000 s
------------------------------------------------------------

------------------------------------------------------------
          Begin self-consistency iteration #    6

  Date     :  20150727, Time     :  124156.010
------------------------------------------------------------
  Evaluating new KS density.
  Integration grid: deviation in total charge (<rho> - N_e) =  -2.188472E-12
  Pulay mixing of updated and previous charge densities.

  Evaluating partitioned Hartree potential by multipole expansion.
  | Analytical far-field extrapolation by fixed multipoles:
  | Hartree multipole sum: apparent total charge =  -0.996684E-05
  Summing up the Hartree potential.
  Time summed over all CPUs for potential: real work        2.893 s, elapsed        2.900 s
  | RMS charge density error from multipole expansion :   0.183182E-01

  Integrating Hamiltonian matrix: batch-based integration.
  Time summed over all CPUs for integration: real work        7.709 s, elapsed        7.867 s

  Updating Kohn-Sham eigenvalues, eigenvectors, occupation numbers, and Fermi level.
  Solving generalized eigenproblem
  Updating Kohn-Sham eigenvalues and eigenfunctions.
  Solving real generalised eigenvalue problem by standard LAPACK (fast)
  Determining occupation numbers for Kohn-Sham eigenstates.
  | Chemical potential (Fermi level) in eV                 : -.18528285E+01
  | Error in electron count due to remaining E_F inaccuracy: 0.42198423E-09
  | Maximum occupation number of highest empty state:  0.00E+00

  Highest occupied state (VBM) at     -1.85282852 eV
  | Occupation number:      1.00000000

  Lowest unoccupied state (CBM) at    -1.05565192 eV
  | Occupation number:      0.00000000

  Overall HOMO-LUMO gap:      0.79717660 eV.

  Total energy components:
  | Sum of eigenvalues            :        -210.03137670 Ha       -5715.24454833 eV
  | XC energy correction          :         -46.89321318 Ha       -1276.02925432 eV
  | XC potential correction       :          59.94417079 Ha        1631.16388000 eV
  | Free-atom electrostatic energy:        -178.45615474 Ha       -4856.03904304 eV
  | Hartree energy correction     :          -7.83942579 Ha        -213.32162949 eV
  | van der Waals energy corr.    :           0.00000000 Ha           0.00000000 eV
  | Entropy correction            :          -0.00010367 Ha          -0.00282095 eV
  | ---------------------------
  | Total energy                  :        -383.27599962 Ha      -10429.47059518 eV
  | Total energy, T -> 0          :        -383.27610328 Ha      -10429.47341613 eV  <-- do not rely on this value for anything but (periodic) metals
  | Electronic free energy        :        -383.27620695 Ha      -10429.47623707 eV

  Derived energy quantities:
  | Kinetic energy                :         382.37074661 Ha       10404.83740750 eV
  | Electrostatic energy          :        -718.75353304 Ha      -19558.27874836 eV
  | Energy correction for multipole
  | error in Hartree potential    :          -0.00612112 Ha          -0.16656412 eV
  | Sum of eigenvalues per atom                           :        -357.20278427 eV
  | Total energy (T->0) per atom                          :        -651.84208851 eV  <-- do not rely on this value for anything but (periodic) metals
  | Electronic free energy per atom                       :        -651.84226482 eV

  Self-consistency convergence accuracy:
  | Change of charge density      : 0.7757E-02
  | Change of sum of eigenvalues  : 0.3086E+00 eV
  | Change of total energy        : -.1074E-02 eV

  End self-consistency iteration #     6       :  max(cpu_time)    wall_clock(cpu1)
  | Time for this iteration                    :        2.067 s           2.067 s
  | Charge density update                      :        0.644 s           0.644 s
  | Density mixing                             :        0.012 s           0.012 s
  | Hartree multipole update                   :        0.005 s           0.005 s
  | Hartree multipole summation                :        0.363 s           0.363 s
  | Integration                                :        0.985 s           0.985 s
  | Solution of K.-S. eqns.                    :        0.058 s           0.058 s
  | Total energy evaluation                    :        0.000 s           0.000 s
------------------------------------------------------------

------------------------------------------------------------
          Begin self-consistency iteration #    7

  Date     :  20150727, Time     :  124158.077
------------------------------------------------------------
  Evaluating new KS density.
  Integration grid: deviation in total charge (<rho> - N_e) =   4.220198E-10
  Pulay mixing of updated and previous charge densities.

  Evaluating partitioned Hartree potential by multipole expansion.
  | Analytical far-field extrapolation by fixed multipoles:
  | Hartree multipole sum: apparent total charge =  -0.100479E-04
  Summing up the Hartree potential.
  Time summed over all CPUs for potential: real work        2.892 s, elapsed        2.901 s
  | RMS charge density error from multipole expansion :   0.183018E-01

  Integrating Hamiltonian matrix: batch-based integration.
  Time summed over all CPUs for integration: real work        7.704 s, elapsed        7.871 s

  Updating Kohn-Sham eigenvalues, eigenvectors, occupation numbers, and Fermi level.
  Solving generalized eigenproblem
  Updating Kohn-Sham eigenvalues and eigenfunctions.
  Solving real generalised eigenvalue problem by standard LAPACK (fast)
  Determining occupation numbers for Kohn-Sham eigenstates.
  | Chemical potential (Fermi level) in eV                 : -.18629881E+01
  | Error in electron count due to remaining E_F inaccuracy: 0.75980466E-09
  | Maximum occupation number of highest empty state:  0.00E+00

  Highest occupied state (VBM) at     -1.86298814 eV
  | Occupation number:      1.00000000

  Lowest unoccupied state (CBM) at    -1.06783247 eV
  | Occupation number:      0.00000000

  Overall HOMO-LUMO gap:      0.79515568 eV.

  Total energy components:
  | Sum of eigenvalues            :        -210.08085101 Ha       -5716.59081288 eV
  | XC energy correction          :         -46.88764793 Ha       -1275.87781604 eV
  | XC potential correction       :          59.93673890 Ha        1630.96164781 eV
  | Free-atom electrostatic energy:        -178.45615474 Ha       -4856.03904304 eV
  | Hartree energy correction     :          -7.78804930 Ha        -211.92360396 eV
  | van der Waals energy corr.    :           0.00000000 Ha           0.00000000 eV
  | Entropy correction            :          -0.00010367 Ha          -0.00282095 eV
  | ---------------------------
  | Total energy                  :        -383.27596408 Ha      -10429.46962811 eV
  | Total energy, T -> 0          :        -383.27606774 Ha      -10429.47244905 eV  <-- do not rely on this value for anything but (periodic) metals
  | Electronic free energy        :        -383.27617141 Ha      -10429.47527000 eV

  Derived energy quantities:
  | Kinetic energy                :         382.39994227 Ha       10405.63186177 eV
  | Electrostatic energy          :        -718.78825842 Ha      -19559.22367384 eV
  | Energy correction for multipole
  | error in Hartree potential    :          -0.00619423 Ha          -0.16855355 eV
  | Sum of eigenvalues per atom                           :        -357.28692580 eV
  | Total energy (T->0) per atom                          :        -651.84202807 eV  <-- do not rely on this value for anything but (periodic) metals
  | Electronic free energy per atom                       :        -651.84220438 eV

  Self-consistency convergence accuracy:
  | Change of charge density      : 0.6881E-02
  | Change of sum of eigenvalues  : -.1346E+01 eV
  | Change of total energy        : 0.9671E-03 eV

  End self-consistency iteration #     7       :  max(cpu_time)    wall_clock(cpu1)
  | Time for this iteration                    :        2.073 s           2.073 s
  | Charge density update                      :        0.648 s           0.649 s
  | Density mixing                             :        0.013 s           0.013 s
  | Hartree multipole update                   :        0.005 s           0.005 s
  | Hartree multipole summation                :        0.364 s           0.363 s
  | Integration                                :        0.985 s           0.986 s
  | Solution of K.-S. eqns.                    :        0.058 s           0.057 s
  | Total energy evaluation                    :        0.000 s           0.000 s
------------------------------------------------------------

------------------------------------------------------------
          Begin self-consistency iteration #    8

  Date     :  20150727, Time     :  124200.151
------------------------------------------------------------
  Evaluating new KS density.
  Integration grid: deviation in total charge (<rho> - N_e) =   7.598189E-10
  Pulay mixing of updated and previous charge densities.

  Evaluating partitioned Hartree potential by multipole expansion.
  | Analytical far-field extrapolation by fixed multipoles:
  | Hartree multipole sum: apparent total charge =  -0.100417E-04
  Summing up the Hartree potential.
  Time summed over all CPUs for potential: real work        2.892 s, elapsed        2.900 s
  | RMS charge density error from multipole expansion :   0.182983E-01

  Integrating Hamiltonian matrix: batch-based integration.
  Time summed over all CPUs for integration: real work        7.747 s, elapsed        7.888 s

  Updating Kohn-Sham eigenvalues, eigenvectors, occupation numbers, and Fermi level.
  Solving generalized eigenproblem
  Updating Kohn-Sham eigenvalues and eigenfunctions.
  Solving real generalised eigenvalue problem by standard LAPACK (fast)
  Determining occupation numbers for Kohn-Sham eigenstates.
  | Chemical potential (Fermi level) in eV                 : -.18716217E+01
  | Error in electron count due to remaining E_F inaccuracy: 0.00000000E+00
  | Maximum occupation number of highest empty state:  0.00E+00

  Highest occupied state (VBM) at     -1.87162171 eV
  | Occupation number:      1.00000000

  Lowest unoccupied state (CBM) at    -1.87162171 eV
  | Occupation number:      1.00000000

  Overall HOMO-LUMO gap:      0.00000000 eV.

  Total energy components:
  | Sum of eigenvalues            :        -210.12406832 Ha       -5717.76681574 eV
  | XC energy correction          :         -46.88325476 Ha       -1275.75827189 eV
  | XC potential correction       :          59.93086862 Ha        1630.80190931 eV
  | Free-atom electrostatic energy:        -178.45615474 Ha       -4856.03904304 eV
  | Hartree energy correction     :          -7.74334510 Ha        -210.70714088 eV
  | van der Waals energy corr.    :           0.00000000 Ha           0.00000000 eV
  | Entropy correction            :          -0.00010367 Ha          -0.00282095 eV
  | ---------------------------
  | Total energy                  :        -383.27595431 Ha      -10429.46936224 eV
  | Total energy, T -> 0          :        -383.27605797 Ha      -10429.47218319 eV  <-- do not rely on this value for anything but (periodic) metals
  | Electronic free energy        :        -383.27616164 Ha      -10429.47500414 eV

  Derived energy quantities:
  | Kinetic energy                :         382.41606329 Ha       10406.07053712 eV
  | Electrostatic energy          :        -718.80876283 Ha      -19559.78162747 eV
  | Energy correction for multipole
  | error in Hartree potential    :          -0.00625667 Ha          -0.17025252 eV
  | Sum of eigenvalues per atom                           :        -357.36042598 eV
  | Total energy (T->0) per atom                          :        -651.84201145 eV  <-- do not rely on this value for anything but (periodic) metals
  | Electronic free energy per atom                       :        -651.84218776 eV

  Self-consistency convergence accuracy:
  | Change of charge density      : 0.3406E-02
  | Change of sum of eigenvalues  : -.1176E+01 eV
  | Change of total energy        : 0.2659E-03 eV

  End self-consistency iteration #     8       :  max(cpu_time)    wall_clock(cpu1)
  | Time for this iteration                    :        2.074 s           2.073 s
  | Charge density update                      :        0.646 s           0.645 s
  | Density mixing                             :        0.014 s           0.014 s
  | Hartree multipole update                   :        0.005 s           0.004 s
  | Hartree multipole summation                :        0.364 s           0.364 s
  | Integration                                :        0.987 s           0.987 s
  | Solution of K.-S. eqns.                    :        0.057 s           0.057 s
  | Total energy evaluation                    :        0.000 s           0.001 s
------------------------------------------------------------

------------------------------------------------------------
          Begin self-consistency iteration #    9

  Date     :  20150727, Time     :  124202.224
------------------------------------------------------------
  Evaluating new KS density.
  Integration grid: deviation in total charge (<rho> - N_e) =   0.000000E+00
  Pulay mixing of updated and previous charge densities.

  Evaluating partitioned Hartree potential by multipole expansion.
  | Analytical far-field extrapolation by fixed multipoles:
  | Hartree multipole sum: apparent total charge =  -0.100550E-04
  Summing up the Hartree potential.
  Time summed over all CPUs for potential: real work        2.892 s, elapsed        2.900 s
  | RMS charge density error from multipole expansion :   0.182863E-01

  Integrating Hamiltonian matrix: batch-based integration.
  Time summed over all CPUs for integration: real work        7.705 s, elapsed        7.888 s

  Updating Kohn-Sham eigenvalues, eigenvectors, occupation numbers, and Fermi level.
  Solving generalized eigenproblem
  Updating Kohn-Sham eigenvalues and eigenfunctions.
  Solving real generalised eigenvalue problem by standard LAPACK (fast)
  Determining occupation numbers for Kohn-Sham eigenstates.
  | Chemical potential (Fermi level) in eV                 : -.18726248E+01
  | Error in electron count due to remaining E_F inaccuracy: 0.00000000E+00
  | Maximum occupation number of highest empty state:  0.00E+00

  Highest occupied state (VBM) at     -1.87262477 eV
  | Occupation number:      1.00000000

  Lowest unoccupied state (CBM) at    -1.87262477 eV
  | Occupation number:      1.00000000

  Overall HOMO-LUMO gap:      0.00000000 eV.

  Total energy components:
  | Sum of eigenvalues            :        -210.12583749 Ha       -5717.81495740 eV
  | XC energy correction          :         -46.88310869 Ha       -1275.75429716 eV
  | XC potential correction       :          59.93067909 Ha        1630.79675209 eV
  | Free-atom electrostatic energy:        -178.45615474 Ha       -4856.03904304 eV
  | Hartree energy correction     :          -7.74153124 Ha        -210.65778319 eV
[...]
   Van der Waals               : 0.132697E-02 0.163163E-02 0.203597E-02
   ----------------------------------------------------------------
   Total forces(   7)            : -.345117E+00 0.452367E+00 -.289870E+01
  atom #    8
   Hellmann-Feynman + Multipole  : -.457699E+01 0.213543E+01 -.942487E+01
   Pulay + GGA                   : 0.622874E+01 -.263052E+01 0.102121E+02
   Van der Waals               : 0.222287E-02 0.449491E-03 -.575448E-02
   ----------------------------------------------------------------
   Total forces(   8)            : 0.165397E+01 -.494639E+00 0.781456E+00
  atom #    9
   Hellmann-Feynman + Multipole  : -.298869E+00 -.678498E-01 -.530167E+00
   Pulay + GGA                   : 0.294625E-01 0.411696E-01 0.759702E-01
   Van der Waals               : 0.282091E-02 0.427206E-02 -.325301E-03
   ----------------------------------------------------------------
   Total forces(   9)            : -.266586E+00 -.224082E-01 -.454522E+00
  atom #   10
   Hellmann-Feynman + Multipole  : -.145484E+01 0.740319E+00 -.355858E+00
   Pulay + GGA                   : 0.110759E+00 -.644281E-01 0.203730E-01
   Van der Waals               : -.379856E-03 0.202010E-02 0.115500E-02
   ----------------------------------------------------------------
   Total forces(  10)            : -.134446E+01 0.677911E+00 -.334330E+00
  atom #   11
   Hellmann-Feynman + Multipole  : -.305597E+01 -.591693E+00 -.146204E+02
   Pulay + GGA                   : 0.385662E+01 0.775374E+00 0.127645E+02
   Van der Waals               : -.118581E-01 0.409849E-03 -.143121E-02
   ----------------------------------------------------------------
   Total forces(  11)            : 0.788787E+00 0.184091E+00 -.185732E+01
  atom #   12
   Hellmann-Feynman + Multipole  : -.215363E+00 -.703615E-01 0.402792E+00
   Pulay + GGA                   : 0.107326E+00 0.752627E-01 0.515503E-01
   Van der Waals               : -.394356E-02 -.201139E-02 -.198469E-02
   ----------------------------------------------------------------
   Total forces(  12)            : -.111981E+00 0.288984E-02 0.452358E+00
  atom #   13
   Hellmann-Feynman + Multipole  : -.616535E+00 -.153801E+00 0.132229E+01
   Pulay + GGA                   : -.710330E-01 -.516715E-01 0.915733E-01
   Van der Waals               : 0.309562E-03 -.441336E-02 -.374197E-02
   ----------------------------------------------------------------
   Total forces(  13)            : -.687259E+00 -.209886E+00 0.141012E+01
  atom #   14
   Hellmann-Feynman + Multipole  : 0.126325E+01 -.158987E+02 0.177373E+01
   Pulay + GGA                   : -.914457E-02 0.158385E+02 -.343113E+01
   Van der Waals               : 0.332797E-02 -.389527E-02 -.642040E-02
   ----------------------------------------------------------------
   Total forces(  14)            : 0.125744E+01 -.641030E-01 -.166382E+01
  atom #   15
   Hellmann-Feynman + Multipole  : -.288127E+00 0.622737E+00 0.239723E+00
   Pulay + GGA                   : -.811301E-01 0.957375E-01 0.917562E-01
   Van der Waals               : 0.212743E-02 -.160162E-02 -.186400E-02
   ----------------------------------------------------------------
   Total forces(  15)            : -.367129E+00 0.716873E+00 0.329615E+00
  atom #   16
   Hellmann-Feynman + Multipole  : -.895324E+00 -.758632E+00 0.146759E+01
   Pulay + GGA                   : 0.533705E-01 0.771634E-01 -.126025E+00
   Van der Waals               : 0.707578E-04 -.222892E-02 -.250207E-02
   ----------------------------------------------------------------
   Total forces(  16)            : -.841883E+00 -.683698E+00 0.133906E+01
  Timings for vdw_correction_hirshfeld (Tkatchenko-Scheffler 2009):
  | CPU time:        5.468 s, Wall clock time:        5.469 s.
  Removing unitary transformations (pure translations, rotations) from forces on atoms.
  Atomic forces before filtering:
  | Net force on center of mass :  0.277383E-02 0.279809E-02 -.113563E-01 eV/A
  | Net torque on center of mass:  -.959650E-04 0.196594E-02 -.843302E-02 eV
  Atomic forces after filtering:
  | Net force on center of mass :  0.178406E-15 -.892031E-16 -.713624E-15 eV/A
  | Net torque on center of mass:  -.755268E-15 0.264344E-14 0.151054E-14 eV
 
  Energy and forces in a compact form:
  | Total energy uncorrected      :         -0.104295573847290E+05 eV
  | Total energy corrected        :         -0.104295602056769E+05 eV  <-- do not rely on this value for anything but (periodic) metals
  | Electronic free energy        :         -0.104295630266248E+05 eV
  Total atomic forces (unitary forces cleaned) [eV/Ang]:
  |   1         -0.147491717565673E+01          0.594096534734446E+00          0.398265130867802E-01
  |   2          0.148960241595700E+00         -0.594400985612296E+00          0.229630071672023E+00
  |   3          0.963318514556548E+00          0.247590051881196E-01          0.377290148732910E-01
  |   4          0.145425414734332E+00          0.383474761207607E-01         -0.406335000999272E+00
  |   5          0.493946113124047E+00         -0.676083062815487E+00          0.302407474057080E+01
  |   6         -0.101899480366278E-01          0.552007942930841E-01         -0.359516455133182E-01
  |   7         -0.345322963710602E+00          0.452014922774640E+00         -0.289798459809144E+01
  |   8          0.165391723776847E+01         -0.494604182583302E+00          0.782159996681944E+00
  |   9         -0.266703367011809E+00         -0.223677317756390E-01         -0.453816618636375E+00
  |  10         -0.134445152952561E+01          0.678031000584147E+00         -0.333629192102349E+00
  |  11          0.788529642555770E+00          0.184085435346841E+00         -0.185661456275647E+01
  |  12         -0.112290948454197E+00          0.296152203090836E-02          0.453068577025291E+00
  |  13         -0.687484629194077E+00         -0.209952167523028E+00          0.141083464868876E+01
  |  14          0.125708882027517E+01         -0.644903254681186E-01         -0.166310635897743E+01
  |  15         -0.367546731950469E+00          0.716435944431389E+00          0.330335108957355E+00
  |  16         -0.842278691069933E+00         -0.684034179726464E+00          0.133977930552041E+01
 
  ------------------------------------ 
  Start decomposition of the XC Energy 
  ------------------------------------ 
  Hartree-Fock part   :          0.000000000 Ha              0.000000000 eV
  ------------------------------------ 
  X Energy            :        -45.225626478 Ha          -1230.651911360 eV
  C Energy GGA        :         -1.657597778 Ha            -45.105530493 eV
  Total XC Energy     :        -46.883224257 Ha          -1275.757441852 eV
  LDA X and C from self-consistent density 
  X Energy LDA        :        -40.763540784 Ha          -1109.232381853 eV
  C Energy LDA        :         -3.338579025 Ha            -90.847357529 eV
  ------------------------------------ 
  End decomposition of the XC Energy 
  ------------------------------------ 
  Performing Hirshfeld analysis of fragment charges and moments.
  ----------------------------------------------------------------------
  | Atom     1: O
  |   Hirshfeld charge        :     -0.13641388
  |   Free atom volume        :     23.95238533
  |   Hirshfeld volume        :     21.91800852
  |   Hirshfeld dipole vector :      0.00930593       0.03483579       0.01157925
  |   Hirshfeld dipole moment :      0.03787098
  |   Hirshfeld second moments:      0.07252884      -0.00739435      -0.00976889
  |                                 -0.00739435       0.03346351      -0.02362090
  |                                 -0.00976889      -0.02362090       0.06352917
  ----------------------------------------------------------------------
  | Atom     2: H
  |   Hirshfeld charge        :      0.11273588
  |   Free atom volume        :     10.44207651
  |   Hirshfeld volume        :      9.61306638
  |   Hirshfeld dipole vector :      0.00009000       0.01341675      -0.00746416
  |   Hirshfeld dipole moment :      0.01535353
  |   Hirshfeld second moments:      0.04780415       0.01755653      -0.00044051
  |                                  0.01755653       0.02730204       0.01237003
  |                                 -0.00044051       0.01237003       0.05903228
  ----------------------------------------------------------------------
  | Atom     3: H
  |   Hirshfeld charge        :      0.09949887
  |   Free atom volume        :     10.44207651
  |   Hirshfeld volume        :      9.79752755
  |   Hirshfeld dipole vector :      0.01488530       0.01113072      -0.00168634
  |   Hirshfeld dipole moment :      0.01866303
  |   Hirshfeld second moments:      0.02006905      -0.01690803      -0.00133593
  |                                 -0.01690803       0.04955945       0.00723087
  |                                 -0.00133593       0.00723087       0.05261362
  ----------------------------------------------------------------------
  | Atom     4: H
  |   Hirshfeld charge        :      0.10755516
  |   Free atom volume        :     10.44207651
  |   Hirshfeld volume        :     12.41972570
  |   Hirshfeld dipole vector :     -0.00979572       0.01000127       0.01413960
  |   Hirshfeld dipole moment :      0.01989748
  |   Hirshfeld second moments:      0.02277405       0.00194652       0.01300818
  |                                  0.00194652       0.01411422       0.00906681
  |                                  0.01300818       0.00906681      -0.03622153
  ----------------------------------------------------------------------
  | Atom     5: O
  |   Hirshfeld charge        :     -0.20781158
  |   Free atom volume        :     23.95238533
  |   Hirshfeld volume        :     22.39754976
  |   Hirshfeld dipole vector :      0.03366683      -0.00364412      -0.01858453
  |   Hirshfeld dipole moment :      0.03862796
  |   Hirshfeld second moments:     -0.00554932       0.00259282       0.03594185
  |                                  0.00259282       0.05345487       0.00841597
  |                                  0.03594185       0.00841597       0.05907765
  ----------------------------------------------------------------------
  | Atom     6: H
  |   Hirshfeld charge        :      0.10231814
  |   Free atom volume        :     10.44207651
  |   Hirshfeld volume        :     10.93602230
  |   Hirshfeld dipole vector :      0.02420157       0.02897387       0.03155032
  |   Hirshfeld dipole moment :      0.04919984
  |   Hirshfeld second moments:      0.00558868      -0.01846948       0.01041287
  |                                 -0.01846948       0.01323354       0.00673973
  |                                  0.01041287       0.00673973       0.05348291
  ----------------------------------------------------------------------
  | Atom     7: H
  |   Hirshfeld charge        :      0.11242259
  |   Free atom volume        :     10.44207651
  |   Hirshfeld volume        :     11.28218805
  |   Hirshfeld dipole vector :     -0.00897836      -0.00422883      -0.06571132
  |   Hirshfeld dipole moment :      0.06645654
  |   Hirshfeld second moments:      0.01808739       0.00131835       0.01448039
  |                                  0.00131835       0.03988036       0.01077176
  |                                  0.01448039       0.01077176       0.02328999
  ----------------------------------------------------------------------
  | Atom     8: O
  |   Hirshfeld charge        :     -0.23566566
  |   Free atom volume        :     23.95238533
  |   Hirshfeld volume        :     22.61277288
  |   Hirshfeld dipole vector :     -0.00925748      -0.01750980       0.03470615
  |   Hirshfeld dipole moment :      0.03996011
  |   Hirshfeld second moments:      0.05154106      -0.01631009       0.00794610
  |                                 -0.01631009       0.02446237       0.03891568
  |                                  0.00794610       0.03891568      -0.01356600
  ----------------------------------------------------------------------
  | Atom     9: H
  |   Hirshfeld charge        :      0.08728253
  |   Free atom volume        :     10.44207651
  |   Hirshfeld volume        :      9.98063550
  |   Hirshfeld dipole vector :      0.00861942       0.02230673       0.03224092
  |   Hirshfeld dipole moment :      0.04014177
  |   Hirshfeld second moments:      0.06526916       0.00301988       0.00208863
  |                                  0.00301988       0.02802721      -0.00067409
  |                                  0.00208863      -0.00067409       0.01219202
  ----------------------------------------------------------------------
  | Atom    10: H
  |   Hirshfeld charge        :      0.11376041
  |   Free atom volume        :     10.44207651
  |   Hirshfeld volume        :     10.60224820
  |   Hirshfeld dipole vector :      0.05972122      -0.03967749       0.00400155
  |   Hirshfeld dipole moment :      0.07181183
  |   Hirshfeld second moments:      0.04150859       0.00305993       0.00186146
  |                                  0.00305993       0.03664507       0.02245679
  |                                  0.00186146       0.02245679       0.03222535
  ----------------------------------------------------------------------
  | Atom    11: O
  |   Hirshfeld charge        :     -0.26442821
  |   Free atom volume        :     23.95238533
  |   Hirshfeld volume        :     22.61524838
  |   Hirshfeld dipole vector :      0.01948846      -0.01621962       0.03367140
  |   Hirshfeld dipole moment :      0.04215020
  |   Hirshfeld second moments:      0.03625995       0.04371297      -0.02670348
  |                                  0.04371297       0.00064889       0.02532119
  |                                 -0.02670348       0.02532119       0.01568280
  ----------------------------------------------------------------------
  | Atom    12: H
  |   Hirshfeld charge        :      0.11680422
  |   Free atom volume        :     10.44207651
  |   Hirshfeld volume        :     10.15246666
  |   Hirshfeld dipole vector :      0.06856143       0.04416104       0.02098275
  |   Hirshfeld dipole moment :      0.08420893
  |   Hirshfeld second moments:      0.04587367       0.01747113      -0.01817458
  |                                  0.01747113       0.03827494       0.00508755
  |                                 -0.01817458       0.00508755       0.05147834
  ----------------------------------------------------------------------
  | Atom    13: H
  |   Hirshfeld charge        :      0.10581694
  |   Free atom volume        :     10.44207651
  |   Hirshfeld volume        :     10.31214427
  |   Hirshfeld dipole vector :     -0.04345988      -0.01596942       0.05155895
  |   Hirshfeld dipole moment :      0.06929725
  |   Hirshfeld second moments:      0.04488280       0.00338542       0.00745057
  |                                  0.00338542       0.02329469       0.01903509
  |                                  0.00745057       0.01903509       0.04321706
  ----------------------------------------------------------------------
  | Atom    14: O
  |   Hirshfeld charge        :     -0.32264728
  |   Free atom volume        :     23.95238533
  |   Hirshfeld volume        :     24.00336485
  |   Hirshfeld dipole vector :     -0.00696014       0.07315667      -0.00342033
  |   Hirshfeld dipole moment :      0.07356658
  |   Hirshfeld second moments:     -0.03571800      -0.01901512      -0.06731581
  |                                 -0.01901512      -0.04749342       0.00527648
  |                                 -0.06731581       0.00527648      -0.00325128
  ----------------------------------------------------------------------
  | Atom    15: H
  |   Hirshfeld charge        :      0.11845181
  |   Free atom volume        :     10.44207651
  |   Hirshfeld volume        :      8.38269350
  |   Hirshfeld dipole vector :     -0.06118908       0.08117798       0.06348310
  |   Hirshfeld dipole moment :      0.11985020
  |   Hirshfeld second moments:      0.07039412      -0.00123083      -0.02509275
  |                                 -0.00123083       0.07129128      -0.00554289
  |                                 -0.02509275      -0.00554289       0.08508597
  ----------------------------------------------------------------------
  | Atom    16: H
  |   Hirshfeld charge        :      0.09030879
  |   Free atom volume        :     10.44207651
  |   Hirshfeld volume        :     10.07389121
  |   Hirshfeld dipole vector :      0.03255922       0.04030271      -0.05254790
  |   Hirshfeld dipole moment :      0.07379494
  |   Hirshfeld second moments:      0.02812470      -0.02287992      -0.00885565
  |                                 -0.02287992       0.04633746       0.01953141
  |                                 -0.00885565       0.01953141       0.03407212
  ----------------------------------------------------------------------


------------------------------------------------------------------------------
  Final output of selected total energy values:

  The following output summarizes some interesting total energy values
  at the end of a run (AFTER all relaxation, molecular dynamics, etc.).

  | Total energy of the DFT / Hartree-Fock s.c.f. calculation      :         -10429.557384729 eV
  | Final zero-broadening corrected energy (caution - metals only) :         -10429.560205677 eV
  | For reference only, the value of 1 Hartree used in FHI-aims is :             27.211384500 eV

  Before relying on these values, please be sure to understand exactly which
  total energy value is referred to by a given number. Different objects may
  all carry the same name 'total energy'. Definitions:

  Total energy of the DFT / Hartree-Fock s.c.f. calculation:
  | Note that this energy does not include ANY quantities calculated after the
  | s.c.f. cycle, in particular not ANY RPA, MP2, etc. many-body perturbation terms.

  Final zero-broadening corrected energy:
  | For metallic systems only, a broadening of the occupation numbers at the Fermi
  | level can be extrapolated back to zero broadening by an electron-gas inspired
  | formula. For all systems that are not real metals, this value can be
  | meaningless and should be avoided.

------------------------------------------------------------------------------

------------------------------------------------------------
          Leaving FHI-aims.
          Date     :  20150727, Time     :  124225.075

          Computational steps:
          | Number of self-consistency cycles          :           17

          Detailed time accounting                     :  max(cpu_time)    wall_clock(cpu1)
          | Total time                                 :       42.030 s          42.064 s
          | Preparation time                           :        0.172 s           0.509 s
          | Grid partitioning                          :        0.147 s           0.147 s
          | Preloading free-atom quantities on grid    :        0.014 s           0.013 s
          | Free-atom superposition energy             :        0.073 s           0.073 s
          | Total time for integrations                :       18.301 s          18.299 s
          | Total time for solution of K.-S. equations :        1.186 s           1.184 s
          | Total time for density & force components  :       13.782 s          13.784 s
          | Total time for mixing                      :        0.235 s           0.234 s
          | Total time for Hartree multipole update    :        0.084 s           0.083 s
          | Total time for Hartree multipole sum       :        7.385 s           7.386 s
          | Total time for total energy evaluation     :        0.004 s           0.006 s
          | Total time for scaled ZORA corrections     :        0.000 s           0.000 s
          | Total time for TS (2009) vdW correction    :        0.058 s           0.058 s

          Have a nice day.
------------------------------------------------------------
