  MPI-parallelism will be employed.
------------------------------------------------------------
          Invoking FHI-aims ...
          Version 081213
          Compiled on 2013/08/29 at 17:41:06 on host generoso.

          When using FHI-aims, please cite the following reference:

          Volker Blum, Ralf Gehrke, Felix Hanke, Paula Havu,
          Ville Havu, Xinguo Ren, Karsten Reuter, and Matthias Scheffler,
          'Ab Initio Molecular Simulations with Numeric Atom-Centered Orbitals: FHI-aims',
          Computer Physics Communications 180, 2175-2196 (2009)

          For any questions about FHI-aims, please visit the aimsclub website
          with its forums and wiki. Contributions to both the forums and the
          wiki are warmly encouraged - they are for you, and everyone is welcome there.

------------------------------------------------------------

  Date     :  20150727, Time     :  130046.052
  Time zero on CPU 1             :   0.389930000000000E-01  s.
  Internal wall clock time zero  :           207234046.052  s.

  Using        8 parallel tasks.
  Task        0 on host gen59 reporting.
  Task        1 on host gen59 reporting.
  Task        2 on host gen59 reporting.
  Task        3 on host gen59 reporting.
  Task        4 on host gen59 reporting.
  Task        5 on host gen59 reporting.
  Task        6 on host gen59 reporting.
  Task        7 on host gen59 reporting.

  Performing system and environment tests:
  | Environment variable OMP_NUM_THREADS correctly set to 1.
  | Checking for scalapack...
  | No scalapack compiled in.

  Obtaining array dimensions for all initial allocations:
  
  -----------------------------------------------------------------------
  Parsing control.in (first pass over file, find array dimensions only).
  The contents of control.in will be repeated verbatim below
  unless switched off by setting 'verbatim_writeout .false.' .
  in the first line of control.in .
  -----------------------------------------------------------------------
  
  #########################################################################################
  #
  #  Volker Blum, FHI 2008 : Test run input file control.in
  #
  #########################################################################################
  #
  #  Physical model
  #
    xc                 rpbe
    spin               none
    relativistic       atomic_zora scalar
    charge             0.
   vdw_correction_hirshfeld
  #
  #  SCF convergence
  #
    occupation_type    gaussian 0.01
    mixer              pulay
      n_max_pulay        10
      charge_mix_param   0.1
    sc_accuracy_rho    5E-5
    sc_accuracy_eev    5E-3
    sc_accuracy_etot   5E-6
    sc_iter_limit      3000
  #
  #  Eigenvalue solver
  #
    KS_method          lapack
      empty_states       8
      basis_threshold    0.e-5
  #
  #  Efficiency
  #
  #   all previous settings are now default, except stratmann still
  #   undecided. Continue to handle stratmann with care, if at all.
  #
  #  partition_type stratmann
    partition_type rho_r2
  #  hartree_partition_type stratmann
  #
  #  Oprions for large clusters (100's of atoms: memory saving / better scaling)
  #
  # for periodic systems:
  #
    density_update_method orbital
    packed_matrix_format none
  #  k_grid 6 6 6
  #  output k_eigenvalue 1
  #  distributed_spline_storage .true.
  #
  #  Relaxation
  #
  #  relax_geometry   bfgs 5.e-3
    sc_accuracy_forces 5.E-4
    final_forces_cleaned .true.
  #
  #  Output options
  #
  #  output mulliken
    output Hirshfeld
  #  output dipole
  
  #harmonic_length_scale 0.001
  
  ################################################################################
  #
  #  FHI-aims code project
  #  VB, Fritz-Haber Institut, 2007
  #
  #  Suggested "safe" defaults for H atom (to be pasted into control.in file)
  #  Basis constructed for a non-relativistic H2 molecule using the
  #  PW-LDA functional.
  #
  ################################################################################
    species        H
  #     global species definitions
      nucleus             1
      cut_pot             4.0  2.0  1.0
      cut_free_atom       finite 8.0
      logarithmic         0.00010000 100.00  1.0123
      basis_dep_cutoff    1d-4  # 1d-4 is safe default - please check 5d-4 if you wish!
      radial_base         24 7.0
      radial_multiplier   2
      angular_grids       specified
        division   0.2783  110
        division   0.3822  194
        division   0.5626  302
  #      division   0.5922  434
  #      division   0.6227  590
  #      division   0.7206  770
        outer_grid  302
      l_hartree           4
  ################################################################################
  #
  #  Definition of "minimal" basis
  #
  ################################################################################
  #     valence basis states
      valence      1  s   1.
  #     ion occupancy
      ion_occ      1  s   0.5
  ################################################################################
  #
  #  Suggested additional basis functions. For production calculations,
  #  uncomment them one after another (the most important basis functions are
  #  listed first).
  #
  ################################################################################
  #  "First tier" - improvements: -1014.90 meV to -62.69 meV
       hydro 2 s 2.1
       hydro 2 p 3.5
  #  "Second tier" - improvements: -12.89 meV to -1.83 meV
       hydro 1 s 0.85
       hydro 2 p 3.7
       hydro 2 s 1.2
       hydro 3 d 7
  #  "Third tier" - improvements: -0.25 meV to -0.12 meV
  #     hydro 4 f 11.2
  #     hydro 3 p 4.8
  #     hydro 4 d 9
  #     hydro 3 s 3.2
  
  ################################################################################
  #
  #  FHI-aims code project
  #  VB, Fritz-Haber Institut, 2007
  #
  #  Suggested "safe" defaults for O atom (to be pasted into control.in file)
  #  All values have been tested for a non-relativistic, non-spinpolarized O2
  #  molecule using the PW-LDA functional. Validity for PBE is expected.
  #
  #  Constructed for dimers: 1.0 A, 1.208 A, 1.5 A, 2.0 A, 3.0 A
  #
  ################################################################################
    species        O
  #     global species definitions
      nucleus             8
      mass                15.9994
      l_hartree           4
      cut_pot             4.0  2.0  1.0
      cut_free_atom       finite 8.0
      basis_dep_cutoff    1d-4  # 1d-4 is safe default - please check 5d-4 if you wish!
      logarithmic         0.00010000 100.00  1.0123
      radial_base         36 7.0
      radial_multiplier   2
       angular_grids specified
        division   0.4087  110
        division   0.5181  194
        division   0.6184  302
  #      division   0.7315  434
  #      division   0.7934  590
  #      division   0.9656  770
  #      division   1.4041  974
  #      outer_grid 974
        outer_grid 302
  ################################################################################
  #
  #  Definition of "minimal" basis
  #
  ################################################################################
  #     valence basis states
      valence      2  s   2.
      valence      2  p   4.
  #     ion occupancy
      ion_occ      2  s   1.
      ion_occ      2  p   3.
  ################################################################################
  #
  #  Suggested additional basis functions. For production calculations,
  #  uncomment them one after another (the most important basis functions are
  #  listed first).
  #
  ################################################################################
  #  "First tier" - improvements: -699.05 meV to -159.38 meV
       hydro 2 p 1.8
       hydro 3 d 7.6
       hydro 3 s 6.4
  #  "Second tier" - improvements: -49.91 meV to -5.39 meV
       hydro 4 f 11.6
       hydro 3 p 6.2
       hydro 3 d 5.6
       hydro 5 g 17.6
       hydro 1 s 0.75
  #  "Third tier" - improvements: -2.83 meV to -0.50 meV
  #     ionic 2 p auto
  #     hydro 4 f 10.8
  #     hydro 4 d 4.7
  #     hydro 2 s 6.8
  #  "Fourth tier" - improvements: -0.40 meV to -0.12 meV
  #     hydro 3 p 5
  #     hydro 3 s 3.3
  #     hydro 5 g 15.6
  #     hydro 4 f 17.6
  #     hydro 4 d 14
  # Further basis functions - -0.08 meV and below
  #     hydro 3 s 2.1
  #     hydro 4 d 11.6
  #     hydro 3 p 16
  #     hydro 2 s 17.2
  
  
  -----------------------------------------------------------------------
  Completed first pass over input file control.in .
  -----------------------------------------------------------------------
  
  
  -----------------------------------------------------------------------
  Parsing geometry.in (first pass over file, find array dimensions only).
  The contents of geometry.in will be repeated verbatim below
  unless switched off by setting 'verbatim_writeout .false.' .
  in the first line of geometry.in .
  -----------------------------------------------------------------------
  
  atom      -4.053030000      0.065001000     -1.525160000  O
  atom      -4.566710000      0.974813000     -1.912820000  H
  atom      -3.067820000      0.330172000     -1.477310000  H
  atom      -4.370360000     -0.049164000     -0.572274000  H
  atom      -1.645860000      0.870179000     -1.502250000  O
  atom      -1.568890000      1.501730000     -0.721051000  H
  atom      -0.824432000      0.282220000     -1.377720000  H
  
  -----------------------------------------------------------------------
  Completed first pass over input file geometry.in .
  -----------------------------------------------------------------------
  
 
  Basic array size parameters: 
  | Number of species                 :        2
  | Number of atoms                   :        7
  | Max. basis fn. angular momentum   :        4
  | Max. atomic/ionic basis occupied n:        2
  | Max. number of basis fn. types    :        2
  | Max. radial fns per species/type  :        8
  | Max. logarithmic grid size        :     1301
  | Max. radial integration grid size :       73
  | Max. angular integration grid size:      302
  | Max. angular grid division number :        8
  | Radial grid for Hartree potential :     1301
  | Number of spin channels           :        1

------------------------------------------------------------
          Reading file control.in.
------------------------------------------------------------
  XC: Using RPBE gradient-corrected functionals.
  Spin treatment: No spin polarisation.
  Scalar relativistic treatment of kinetic energy: on-site free-atom approximation to ZORA.
  Charge =   0.000000E+00: Neutral system requested explicitly.
  Using non-empirical van der Waals correction (Hirshfeld partitioning):
  Occupation type: Gaussian broadening, width =   0.100000E-01 eV.
  Using pulay charge density mixing.
  Pulay mixing - number of memorized iterations:   10
  Charge density mixing - mixing parameter:     0.1000
  Convergence accuracy of self-consistent charge density: 0.5000E-04
  Convergence accuracy of sum of eigenvalues: 0.5000E-02
  Convergence accuracy of total energy: 0.5000E-05
  Maximum number of s.-c. iterations  :  3000
  Kohn-Sham eigenvalues and eigenfunctions calculated by lapack diagonalisation (D&C).
  Number of empty states per atom:        8
  Threshold for basis singularities: 0.0000E+00
  Partition function in integrals calculations: rho / r^2
 Using packed matrix format           0
  Convergence accuracy of forces: 0.5000E-03
  Cleaning forces before final output.
  Hirshfeld charge analysis will be performed.
 
  Reading configuration options for species H                   .
  | Found nuclear charge :   1.0000
  | Found cutoff potl. onset [A], width [A], scale factor :    4.00000    2.00000    1.00000
  | Found cutoff specification for free atom: Cutoff potential begins at    8.00000 A.
  | Found logarithmic grid data [bohr] : 0.1000E-03 0.1000E+03 0.1012E+01
  | Threshold for basis-dependent cutoff potential is   0.100000E-03
  | Found data for basic radial integration grid :    24 points, outermost radius =    7.000 A
  | Found multiplier for basic radial grid :   2
  | Found angular grid specification: user-specified.
  | Specified grid contains     4 separate shells.
  | Check grid settings after all constraints further below.
  | Found l_max for Hartree potential  :   4
  | Found free-atom valence shell :  1 s   1.000
  | No ionic wave fns used. Skipping ion_occ.
  | Found hydrogenic basis function :  2 s   2.100
  | Found hydrogenic basis function :  2 p   3.500
  | Found hydrogenic basis function :  1 s   0.850
  | Found hydrogenic basis function :  2 p   3.700
  | Found hydrogenic basis function :  2 s   1.200
  | Found hydrogenic basis function :  3 d   7.000
  Species H                   : Missing cutoff potential type.
  Defaulting to exp(1/x)/(1-x)^2 type cutoff potential.
  Species H : On-site basis accuracy parameter (for Gram-Schmidt orthonormalisation) not specified.
  Using default value basis_acc =  0.1000000E-03.
  Species H                   : Using default innermost maximum threshold i_radial=  2 for radial functions.
  Species H                   : Basic radial grid will be enhanced according to radial_multiplier =   2, to contain    49 grid points.
 
  Reading configuration options for species O                   .
  | Found nuclear charge :   8.0000
  | Found atomic mass :    15.9994000000000      amu
  | Found l_max for Hartree potential  :   4
  | Found cutoff potl. onset [A], width [A], scale factor :    4.00000    2.00000    1.00000
  | Found cutoff specification for free atom: Cutoff potential begins at    8.00000 A.
  | Threshold for basis-dependent cutoff potential is   0.100000E-03
  | Found logarithmic grid data [bohr] : 0.1000E-03 0.1000E+03 0.1012E+01
  | Found data for basic radial integration grid :    36 points, outermost radius =    7.000 A
  | Found multiplier for basic radial grid :   2
  | Found angular grid specification: user-specified.
  | Specified grid contains     4 separate shells.
  | Check grid settings after all constraints further below.
  | Found free-atom valence shell :  2 s   2.000
  | Found free-atom valence shell :  2 p   4.000
  | No ionic wave fns used. Skipping ion_occ.
  | No ionic wave fns used. Skipping ion_occ.
  | Found hydrogenic basis function :  2 p   1.800
  | Found hydrogenic basis function :  3 d   7.600
  | Found hydrogenic basis function :  3 s   6.400
  | Found hydrogenic basis function :  4 f  11.600
  | Found hydrogenic basis function :  3 p   6.200
  | Found hydrogenic basis function :  3 d   5.600
  | Found hydrogenic basis function :  5 g  17.600
  | Found hydrogenic basis function :  1 s   0.750
  Species O                   : Missing cutoff potential type.
  Defaulting to exp(1/x)/(1-x)^2 type cutoff potential.
  Species O : On-site basis accuracy parameter (for Gram-Schmidt orthonormalisation) not specified.
  Using default value basis_acc =  0.1000000E-03.
  Species O                   : Using default innermost maximum threshold i_radial=  2 for radial functions.
  Species O                   : Basic radial grid will be enhanced according to radial_multiplier =   2, to contain    73 grid points.
 
  Finished reading input file 'control.in'. Consistency checks are next.
 
  Target number of points in a grid batch is not set. Defaulting to  100
  Method for grid partitioning is not set. Defaulting to parallel hash+maxmin partitioning.
  Batch size limit is not set. Defaulting to    200
  By default, will store active basis functions for each batch.
  If in need of memory, prune_basis_once .false. can be used to disable this option.
  communication_type for Hartree potential was not specified.
  Defaulting to calc_hartree .
  Pulay mixer: Number of initial linear mixing iterations not set.
  Defaulting to    0 iterations.
  Work space size for distributed Hartree potential not set.
  Defaulting to   0.200000E+03 MB.
  Algorithm-dependent basis array size parameters:
  | n_max_pulay                         :       10
  Geometry relaxation not requested: no relaxation will be performed.
  Handling of forces: Unphysical translation and rotation will be removed from forces.
  No accuracy limit for integral partition fn. given. Defaulting to 0.1000E-14.
  No threshold value for u(r) in integrations given. Defaulting to 0.1000E-05.
  No accuracy for occupation numbers given. Defaulting to 0.1000E-07.
  No threshold value for occupation numbers given. Defaulting to 0.0000E+00.
  No accuracy for fermi level given. Defaulting to 0.1000E-19.
  Maximum # of iterations to find E_F not set. Defaulting to  200.
  Will not use alltoall communication since running on < 1024 CPUs.
  Partitioning for Hartree potential was not defined. Using partition_type for integrals.
  | Reporting present value of keyword multip_moments_threshold  :       0.10000000E-09
  | This value may affect high angular momentum components of the Hartree potential in periodic systems.
  No q(lm)/r^(l+1) cutoff set for long-range Hartree potential.
  | Using default value of  0.100000E-09 .
  | Verify using the multipole_threshold keyword.
  Defaulting to new monopole extrapolation.
  Density update method: Loop over occupied states selected for charge density update.
------------------------------------------------------------


------------------------------------------------------------
          Reading geometry description geometry.in.
------------------------------------------------------------
  Input structure read successfully.
  The structure contains        7 atoms,  and a total of         21.000 electrons.

  Input geometry:
  | No unit cell requested.
  | Atomic structure:
  |       Atom                x [A]            y [A]            z [A]
  |    1: Species O             -4.053030         0.065001        -1.525160
  |    2: Species H             -4.566710         0.974813        -1.912820
  |    3: Species H             -3.067820         0.330172        -1.477310
  |    4: Species H             -4.370360        -0.049164        -0.572274
  |    5: Species O             -1.645860         0.870179        -1.502250
  |    6: Species H             -1.568890         1.501730        -0.721051
  |    7: Species H             -0.824432         0.282220        -1.377720
  |

  | The smallest distance between any two atoms is         1.00749835 AA.
  |
  | The first atom of this pair is atom number                      5 .
  | The second atom of this pair is atom number                     6 .

  Structure-dependent array size parameters: 
  | Maximum number of distinct radial functions  :       18
  | Maximum number of basis functions            :      153
  | Number of Kohn-Sham states (occupied + empty):       39
------------------------------------------------------------

------------------------------------------------------------
          Preparing all fixed parts of the calculation.
------------------------------------------------------------
  Determining machine precision:
    2.225073858507201E-308
  Setting up grids for atomic and cluster calculations.

  Creating wave function, potential, and density for free atoms.

  Species: H

  List of occupied orbitals and eigenvalues:
    n    l              occ      energy [Ha]    energy [eV]
    1    0           1.0000        -0.241408        -6.5691


  Species: O

  List of occupied orbitals and eigenvalues:
    n    l              occ      energy [Ha]    energy [eV]
    1    0           2.0000       -18.944147      -515.4965
    2    0           2.0000        -0.883529       -24.0421
    2    1           4.0000        -0.330176        -8.9845

  Creating fixed part of basis set: Ionic, confined, hydrogenic.
 
  H                    hydrogenic:
 
  List of hydrogenic basis orbitals: 
    n    l      effective z      eigenvalue [eV]  inner max. [A]     outer max. [A]     outer radius [A]   
    2    0         2.100000       -14.9965           0.193241           1.317192           5.372934
    2    1         3.500000       -41.6672           0.602363           0.602363           4.056010
    1    0         0.850000        -9.8292           0.624864           0.624864           5.372934
    2    1         3.700000       -46.5653           0.573616           0.573616           3.909951
    2    0         1.200000        -4.5995           0.334977           2.228160           5.505921
    3    2         7.000000       -74.0753           0.680692           0.680692           3.769152
 
 
  O                    hydrogenic:
 
  List of hydrogenic basis orbitals: 
    n    l      effective z      eigenvalue [eV]  inner max. [A]     outer max. [A]     outer radius [A]   
    2    1         1.800000       -11.0118           1.178546           1.178546           5.432516
    3    2         7.600000       -87.3182           0.624117           0.624117           3.541422
    3    0         6.400000       -61.9209           0.061166           1.081887           4.306510
    4    3        11.600000      -114.4238           0.731621           0.731621           3.584982
    3    1         6.200000       -58.1113           0.255677           1.030255           4.306510
    3    2         5.600000       -47.4081           0.847222           0.847222           4.413102
    5    4        17.600000      -168.5799           0.749730           0.749730           3.372413
    1    0         0.750000        -7.6499           0.705275           0.705275           5.366508
 

  Adding cutoff potential to free-atom effective potential.
  Creating atomic-like basis functions for current effective potential.

  Species H                   :

  List of atomic basis orbitals and eigenvalues:
    n    l      energy [Ha]    energy [eV]    outer radius [A]
    1    0        -0.241374        -6.5681       5.372934


  Species O                   :

  List of atomic basis orbitals and eigenvalues:
    n    l      energy [Ha]    energy [eV]    outer radius [A]
    1    0       -18.944147      -515.4965       1.415745
    2    0        -0.883529       -24.0421       5.048305
    2    1        -0.330173        -8.9845       5.301302

  Assembling full basis from fixed parts.
  | Species H :   atomic orbital   1 s accepted.
  | Species H :    hydro orbital   2 s accepted.
  | Species H :    hydro orbital   1 s accepted.
  | Species H :    hydro orbital   2 s accepted.
  | Species H :    hydro orbital   2 p accepted.
  | Species H :    hydro orbital   2 p accepted.
  | Species H :    hydro orbital   3 d accepted.
  | Species O :   atomic orbital   1 s accepted.
  | Species O :    hydro orbital   3 s accepted.
  | Species O :   atomic orbital   2 s accepted.
  | Species O :    hydro orbital   1 s accepted.
  | Species O :    hydro orbital   3 p accepted.
  | Species O :   atomic orbital   2 p accepted.
  | Species O :    hydro orbital   2 p accepted.
  | Species O :    hydro orbital   3 d accepted.
  | Species O :    hydro orbital   3 d accepted.
  | Species O :    hydro orbital   4 f accepted.
  | Species O :    hydro orbital   5 g accepted.
 
  Basis size parameters after reduction:
  | Total number of radial functions:       18
  | Total number of basis functions :      153
 
  Testing on-site integration grid accuracy.
  |  Species  Function  <phi|h_atom|phi> (log., in eV)  <phi|h_atom|phi> (rad., in eV)
           1        1                 -6.5683835025                 -6.5684759159
           1        2                 13.3711789951                 13.3708738703
           1        3                 23.6590910787                 23.6532055418
           1        4                 16.2963827186                 16.1870710655 ***
           1        5                 28.7627214838                 28.7627215090
           1        6                 59.5965249172                 59.5965950857
           1        7                 60.2220506392                 60.2220503827
           2        8               -515.4964576505               -515.4964530710
           2        9                 15.3030791347                 15.3030722972
           2       10                -21.7296094581                -21.7296135470
           2       11                 14.2969371730                 14.2969701621
           2       12                 21.0679693190                 21.0679697493
           2       13                 -2.3833606469                 -2.3833613176
           2       14                 13.7067136422                 13.7066766629
           2       15                 45.8013116808                 45.8013116965
           2       16                 52.2309815402                 52.2309831494
           2       17                 85.4120732416                 85.4120732763
           2       18                142.1019167745                142.1019167817
 * Note: Onsite integrals marked "***" above are less accurate than
 * onsite_accuracy_threshold =    0.03000 eV. Usually, this is harmless.
 * When in doubt, tighten the "radial" and/or "radial_multiplier" flags to check.

  Preparing densities etc. for the partition functions (integrals / Hartree potential).

  Preparations completed.
  max(cpu_time)          :      0.173 s.
  Wall clock time (cpu1) :      0.578 s.
------------------------------------------------------------

------------------------------------------------------------
          Begin self-consistency loop: Initialization.

          Date     :  20150727, Time     :  130046.665
------------------------------------------------------------

  Initializing index lists of integration centers etc. from given atomic structure:
  | Number of centers in hartree potential         :         7
  | Number of centers in hartree multipole         :         7
  | Number of centers in electron density summation:         7
  | Number of centers in basis integrals           :         7
  | Number of centers in integrals                 :         7
  Partitioning the integration grid into batches with parallel hashing+maxmin method.
  | Number of batches:     1119
  | Maximal batch size:     182
  | Minimal batch size:      52
  | Average batch size:      80.677
  | Standard deviation of batch sizes:      23.816

  Integration load balanced across     8 MPI tasks.
  Work distribution over tasks is as follows:
  Task     0 has      11323 integration points.
  Task     1 has      11250 integration points.
  Task     2 has      11338 integration points.
  Task     3 has      11372 integration points.
  Task     4 has      11241 integration points.
  Task     5 has      11241 integration points.
  Task     6 has      11229 integration points.
  Task     7 has      11284 integration points.
  Initializing partition tables, free-atom densities, potentials, etc. across the integration grid (initialize_grid_storage).
  | Net number of integration points:    90278
  | of which are non-zero points    :    89829
  Obtaining max. number of non-zero basis functions in each batch (get_n_compute_maxes).
  | Maximal number of non-zero basis functions:      153 in task     0
  | Maximal number of non-zero basis functions:      153 in task     1
  | Maximal number of non-zero basis functions:      153 in task     2
  | Maximal number of non-zero basis functions:      153 in task     3
  | Maximal number of non-zero basis functions:      153 in task     4
  | Maximal number of non-zero basis functions:      153 in task     5
  | Maximal number of non-zero basis functions:      153 in task     6
  | Maximal number of non-zero basis functions:      153 in task     7
  Integrating Hamiltonian matrix: batch-based integration.
  Time summed over all CPUs for integration: real work        1.499 s, elapsed        1.567 s
  Integrating overlap matrix.
  Time summed over all CPUs for integration: real work        0.757 s, elapsed        0.790 s

  Updating Kohn-Sham eigenvalues, eigenvectors, occupation numbers, and Fermi level.
  Solving generalized eigenproblem
  Updating Kohn-Sham eigenvalues and eigenfunctions.
  Transforming overlap matrix and checking for singularities.
  Overlap matrix is nonsingular:
  | Lowest eigenvalue:  0.303755E-03
  Solving real generalised eigenvalue problem by standard LAPACK (fast)
  Determining occupation numbers for Kohn-Sham eigenstates.
  | Chemical potential (Fermi level) in eV                 : -.28012286E+01
  | Error in electron count due to remaining E_F inaccuracy: 0.00000000E+00
  | Maximum occupation number of highest empty state:  0.00E+00

  Writing Kohn-Sham eigenvalues.

  State    Occupation    Eigenvalue [Ha]    Eigenvalue [eV]
      1       2.00000         -19.064915         -518.78272
      2       2.00000         -19.042470         -518.17198
      3       2.00000          -1.122275          -30.53865
      4       2.00000          -1.081739          -29.43562
      5       2.00000          -0.639288          -17.39590
      6       2.00000          -0.603955          -16.43445
      7       2.00000          -0.601067          -16.35585
      8       2.00000          -0.515303          -14.02210
      9       2.00000          -0.486173          -13.22944
     10       2.00000          -0.435836          -11.85970
     11       1.00000          -0.102943           -2.80123
     12       0.00000          -0.066421           -1.80742
     13       0.00000          -0.029491           -0.80249
     14       0.00000          -0.013207           -0.35937
     15       0.00000           0.046717            1.27123
     16       0.00000           0.067906            1.84782
     17       0.00000           0.079478            2.16270
     18       0.00000           0.094033            2.55876
     19       0.00000           0.106297            2.89249
     20       0.00000           0.126059            3.43025
     21       0.00000           0.142529            3.87842
     22       0.00000           0.147244            4.00670
     23       0.00000           0.207730            5.65261
     24       0.00000           0.214139            5.82703
     25       0.00000           0.242362            6.59499
     26       0.00000           0.276364            7.52025
     27       0.00000           0.320857            8.73096
     28       0.00000           0.354163            9.63726
     29       0.00000           0.359164            9.77334
     30       0.00000           0.383956           10.44798
     31       0.00000           0.389201           10.59070
     32       0.00000           0.403547           10.98107
     33       0.00000           0.461015           12.54486
     34       0.00000           0.479621           13.05116
     35       0.00000           0.543852           14.79898
     36       0.00000           0.598209           16.27810
     37       0.00000           0.617885           16.81352
     38       0.00000           0.728643           19.82737
     39       0.00000           0.736845           20.05057

  Highest occupied state (VBM) at     -2.80122860 eV
  | Occupation number:      1.00000000

  Lowest unoccupied state (CBM) at    -2.80122860 eV
  | Occupation number:      1.00000000

  Overall HOMO-LUMO gap:      0.00000000 eV.
  Calculating total energy contributions from superposition of free atom densities.

  Total energy components:
  | Sum of eigenvalues            :         -87.28898276 Ha       -2375.25407262 eV
  | XC energy correction          :         -18.56562457 Ha        -505.19634879 eV
  | XC potential correction       :          23.73072491 Ha         645.74587998 eV
  | Free-atom electrostatic energy:         -71.54325223 Ha       -1946.79094476 eV
  | Hartree energy correction     :           0.00000000 Ha           0.00000000 eV
  | van der Waals energy corr.    :           0.00000000 Ha           0.00000000 eV
  | Entropy correction            :          -0.00010367 Ha          -0.00282095 eV
  | ---------------------------
  | Total energy                  :        -153.66713466 Ha       -4181.49548619 eV
  | Total energy, T -> 0          :        -153.66723833 Ha       -4181.49830713 eV  <-- do not rely on this value for anything but (periodic) metals
  | Electronic free energy        :        -153.66734199 Ha       -4181.50112808 eV

  Derived energy quantities:
  | Kinetic energy                :         152.32927458 Ha        4145.09046123 eV
  | Electrostatic energy          :        -287.43078466 Ha       -7821.38959863 eV
  | Energy correction for multipole
  | error in Hartree potential    :           0.00000000 Ha           0.00000000 eV
  | Sum of eigenvalues per atom                           :        -339.32201037 eV
  | Total energy (T->0) per atom                          :        -597.35690102 eV  <-- do not rely on this value for anything but (periodic) metals
  | Electronic free energy per atom                       :        -597.35730401 eV
  Initialize hartree_potential_storage
  Max. number of atoms included in rho_multipole:            7

  End scf initialization - timings             :  max(cpu_time)    wall_clock(cpu1)
  | Time for scf. initialization               :        0.450 s           0.450 s
  | Boundary condition initialization          :        0.000 s           0.000 s
  | Integration                                :        0.296 s           0.296 s
  | Solution of K.-S. eqns.                    :        0.035 s           0.035 s
  | Grid partitioning                          :        0.055 s           0.055 s
  | Preloading free-atom quantities on grid    :        0.014 s           0.013 s
  | Free-atom superposition energy             :        0.019 s           0.019 s
  | Total energy evaluation                    :        0.000 s           0.001 s
------------------------------------------------------------

------------------------------------------------------------
          Begin self-consistency iteration #    1

  Date     :  20150727, Time     :  130047.115
------------------------------------------------------------
  Evaluating new KS density.
  Integration grid: deviation in total charge (<rho> - N_e) =   1.065814E-14
  Pulay mixing of updated and previous charge densities.

  Evaluating partitioned Hartree potential by multipole expansion.
  | Analytical far-field extrapolation by fixed multipoles:
  | Hartree multipole sum: apparent total charge =  -0.375980E-06
  Summing up the Hartree potential.
  Time summed over all CPUs for potential: real work        0.572 s, elapsed        0.576 s
  | RMS charge density error from multipole expansion :   0.102664E-02

  Integrating Hamiltonian matrix: batch-based integration.
  Time summed over all CPUs for integration: real work        1.491 s, elapsed        1.543 s

  Updating Kohn-Sham eigenvalues, eigenvectors, occupation numbers, and Fermi level.
  Solving generalized eigenproblem
  Updating Kohn-Sham eigenvalues and eigenfunctions.
  Solving real generalised eigenvalue problem by standard LAPACK (fast)
  Determining occupation numbers for Kohn-Sham eigenstates.
  | Chemical potential (Fermi level) in eV                 : -.26289840E+01
  | Error in electron count due to remaining E_F inaccuracy: -.55756608E-08
  | Maximum occupation number of highest empty state:  0.00E+00

  Writing Kohn-Sham eigenvalues.

  State    Occupation    Eigenvalue [Ha]    Eigenvalue [eV]
      1       2.00000         -19.008360         -517.24378
      2       2.00000         -18.975991         -516.36300
      3       2.00000          -1.095185          -29.80151
      4       2.00000          -1.050199          -28.57736
      5       2.00000          -0.615489          -16.74831
      6       2.00000          -0.580137          -15.78632
      7       2.00000          -0.575281          -15.65418
      8       2.00000          -0.485362          -13.20738
      9       2.00000          -0.457410          -12.44676
     10       2.00000          -0.402623          -10.95593
     11       1.00000          -0.096613           -2.62898
     12       0.00000          -0.060303           -1.64094
     13       0.00000          -0.023995           -0.65295
     14       0.00000          -0.007956           -0.21649
     15       0.00000           0.050710            1.37989
     16       0.00000           0.071477            1.94500
     17       0.00000           0.083906            2.28320
     18       0.00000           0.099493            2.70734
     19       0.00000           0.110075            2.99528
     20       0.00000           0.135285            3.68130
     21       0.00000           0.150471            4.09452
     22       0.00000           0.154296            4.19860
     23       0.00000           0.213197            5.80139
     24       0.00000           0.219675            5.97766
     25       0.00000           0.246888            6.71817
     26       0.00000           0.281154            7.65058
     27       0.00000           0.325972            8.87015
     28       0.00000           0.359519            9.78301
     29       0.00000           0.364560            9.92019
     30       0.00000           0.388793           10.57959
     31       0.00000           0.395497           10.76203
     32       0.00000           0.407405           11.08606
     33       0.00000           0.466195           12.68582
     34       0.00000           0.485717           13.21704
     35       0.00000           0.550719           14.98583
     36       0.00000           0.605128           16.46638
     37       0.00000           0.625730           17.02698
     38       0.00000           0.736622           20.04449
     39       0.00000           0.742377           20.20110

  Highest occupied state (VBM) at    -10.95593458 eV
  | Occupation number:      2.00000000

  Lowest unoccupied state (CBM) at    -2.62898396 eV
  | Occupation number:      0.99999999

  Overall HOMO-LUMO gap:      8.32695062 eV.

  Total energy components:
  | Sum of eigenvalues            :         -86.58868767 Ha       -2356.19807352 eV
  | XC energy correction          :         -18.64188738 Ha        -507.27156536 eV
  | XC potential correction       :          23.83022751 Ha         648.45348340 eV
  | Free-atom electrostatic energy:         -71.54325223 Ha       -1946.79094476 eV
  | Hartree energy correction     :          -0.68615279 Ha         -18.67116726 eV
  | van der Waals energy corr.    :           0.00000000 Ha           0.00000000 eV
  | Entropy correction            :          -0.00010367 Ha          -0.00282095 eV
  | ---------------------------
  | Total energy                  :        -153.62975256 Ha       -4180.47826750 eV
  | Total energy, T -> 0          :        -153.62985623 Ha       -4180.48108845 eV  <-- do not rely on this value for anything but (periodic) metals
  | Electronic free energy        :        -153.62995989 Ha       -4180.48390939 eV

  Derived energy quantities:
  | Kinetic energy                :         152.80500562 Ha        4158.03576156 eV
  | Electrostatic energy          :        -287.79287080 Ha       -7831.24246370 eV
  | Energy correction for multipole
  | error in Hartree potential    :           0.00034445 Ha           0.00937308 eV
  | Sum of eigenvalues per atom                           :        -336.59972479 eV
  | Total energy (T->0) per atom                          :        -597.21158406 eV  <-- do not rely on this value for anything but (periodic) metals
  | Electronic free energy per atom                       :        -597.21198706 eV

  Self-consistency convergence accuracy:
  | Change of charge density      : 0.3667E+00
  | Change of sum of eigenvalues  : 0.1906E+02 eV
  | Change of total energy        : 0.1017E+01 eV

  End self-consistency iteration #     1       :  max(cpu_time)    wall_clock(cpu1)
  | Time for this iteration                    :        0.414 s           0.414 s
  | Charge density update                      :        0.135 s           0.135 s
  | Density mixing                             :        0.002 s           0.002 s
  | Hartree multipole update                   :        0.002 s           0.002 s
  | Hartree multipole summation                :        0.073 s           0.073 s
  | Integration                                :        0.193 s           0.193 s
  | Solution of K.-S. eqns.                    :        0.009 s           0.009 s
  | Total energy evaluation                    :        0.000 s           0.000 s
------------------------------------------------------------

------------------------------------------------------------
          Begin self-consistency iteration #    2

  Date     :  20150727, Time     :  130047.529
------------------------------------------------------------
  Evaluating new KS density.
  Integration grid: deviation in total charge (<rho> - N_e) =  -5.575650E-09
  Pulay mixing of updated and previous charge densities.

  Evaluating partitioned Hartree potential by multipole expansion.
  | Analytical far-field extrapolation by fixed multipoles:
  | Hartree multipole sum: apparent total charge =  -0.196215E-05
  Summing up the Hartree potential.
  Time summed over all CPUs for potential: real work        0.572 s, elapsed        0.576 s
  | RMS charge density error from multipole expansion :   0.409622E-02

  Integrating Hamiltonian matrix: batch-based integration.
  Time summed over all CPUs for integration: real work        1.490 s, elapsed        1.545 s

  Updating Kohn-Sham eigenvalues, eigenvectors, occupation numbers, and Fermi level.
  Solving generalized eigenproblem
  Updating Kohn-Sham eigenvalues and eigenfunctions.
  Solving real generalised eigenvalue problem by standard LAPACK (fast)
  Determining occupation numbers for Kohn-Sham eigenstates.
  | Chemical potential (Fermi level) in eV                 : -.22476065E+01
  | Error in electron count due to remaining E_F inaccuracy: 0.00000000E+00
  | Maximum occupation number of highest empty state:  0.00E+00

  Highest occupied state (VBM) at     -2.24760648 eV
  | Occupation number:      1.00000000

  Lowest unoccupied state (CBM) at    -2.24760648 eV
  | Occupation number:      1.00000000

  Overall HOMO-LUMO gap:      0.00000000 eV.

  Total energy components:
  | Sum of eigenvalues            :         -84.98751605 Ha       -2312.62797692 eV
  | XC energy correction          :         -18.82576295 Ha        -512.27507423 eV
  | XC potential correction       :          24.06929536 Ha         654.95885065 eV
  | Free-atom electrostatic energy:         -71.54325223 Ha       -1946.79094476 eV
  | Hartree energy correction     :          -2.30366844 Ha         -62.68600768 eV
  | van der Waals energy corr.    :           0.00000000 Ha           0.00000000 eV
  | Entropy correction            :          -0.00010367 Ha          -0.00282095 eV
  | ---------------------------
  | Total energy                  :        -153.59090431 Ha       -4179.42115293 eV
  | Total energy, T -> 0          :        -153.59100798 Ha       -4179.42397388 eV  <-- do not rely on this value for anything but (periodic) metals
  | Electronic free energy        :        -153.59111165 Ha       -4179.42679482 eV

  Derived energy quantities:
  | Kinetic energy                :         153.76724077 Ha        4184.21951221 eV
  | Electrostatic energy          :        -288.53238213 Ha       -7851.36559091 eV
  | Energy correction for multipole
  | error in Hartree potential    :           0.00098065 Ha           0.02668476 eV
  | Sum of eigenvalues per atom                           :        -330.37542527 eV
  | Total energy (T->0) per atom                          :        -597.06056770 eV  <-- do not rely on this value for anything but (periodic) metals
  | Electronic free energy per atom                       :        -597.06097069 eV

  Self-consistency convergence accuracy:
  | Change of charge density      : 0.2786E+00
  | Change of sum of eigenvalues  : 0.4357E+02 eV
  | Change of total energy        : 0.1057E+01 eV

  End self-consistency iteration #     2       :  max(cpu_time)    wall_clock(cpu1)
  | Time for this iteration                    :        0.414 s           0.414 s
  | Charge density update                      :        0.134 s           0.134 s
  | Density mixing                             :        0.002 s           0.002 s
  | Hartree multipole update                   :        0.003 s           0.003 s
  | Hartree multipole summation                :        0.072 s           0.072 s
  | Integration                                :        0.194 s           0.194 s
  | Solution of K.-S. eqns.                    :        0.008 s           0.008 s
  | Total energy evaluation                    :        0.001 s           0.001 s
------------------------------------------------------------

------------------------------------------------------------
          Begin self-consistency iteration #    3

  Date     :  20150727, Time     :  130047.944
------------------------------------------------------------
  Evaluating new KS density.
  Integration grid: deviation in total charge (<rho> - N_e) =   1.421085E-14
  Pulay mixing of updated and previous charge densities.

  Evaluating partitioned Hartree potential by multipole expansion.
  | Analytical far-field extrapolation by fixed multipoles:
  | Hartree multipole sum: apparent total charge =  -0.267790E-05
  Summing up the Hartree potential.
  Time summed over all CPUs for potential: real work        0.572 s, elapsed        0.576 s
  | RMS charge density error from multipole expansion :   0.889988E-02

  Integrating Hamiltonian matrix: batch-based integration.
  Time summed over all CPUs for integration: real work        1.491 s, elapsed        1.546 s

  Updating Kohn-Sham eigenvalues, eigenvectors, occupation numbers, and Fermi level.
  Solving generalized eigenproblem
  Updating Kohn-Sham eigenvalues and eigenfunctions.
  Solving real generalised eigenvalue problem by standard LAPACK (fast)
  Determining occupation numbers for Kohn-Sham eigenstates.
  | Chemical potential (Fermi level) in eV                 : -.23272924E+01
  | Error in electron count due to remaining E_F inaccuracy: 0.90771834E-11
  | Maximum occupation number of highest empty state:  0.00E+00

  Highest occupied state (VBM) at     -2.32729238 eV
  | Occupation number:      1.00000000

  Lowest unoccupied state (CBM) at    -1.27962498 eV
  | Occupation number:      0.00000000

  Overall HOMO-LUMO gap:      1.04766739 eV.

  Total energy components:
  | Sum of eigenvalues            :         -85.19434041 Ha       -2318.25595402 eV
  | XC energy correction          :         -18.81953216 Ha        -512.10552563 eV
  | XC potential correction       :          24.05630816 Ha         654.60545105 eV
  | Free-atom electrostatic energy:         -71.54325223 Ha       -1946.79094476 eV
  | Hartree energy correction     :          -2.09043788 Ha         -56.88370890 eV
  | van der Waals energy corr.    :           0.00000000 Ha           0.00000000 eV
  | Entropy correction            :          -0.00010367 Ha          -0.00282095 eV
  | ---------------------------
  | Total energy                  :        -153.59125451 Ha       -4179.43068226 eV
  | Total energy, T -> 0          :        -153.59135818 Ha       -4179.43350320 eV  <-- do not rely on this value for anything but (periodic) metals
  | Electronic free energy        :        -153.59146184 Ha       -4179.43632415 eV

  Derived energy quantities:
  | Kinetic energy                :         153.12656988 Ha        4166.78597019 eV
  | Electrostatic energy          :        -287.89829223 Ha       -7834.11112681 eV
  | Energy correction for multipole
  | error in Hartree potential    :          -0.00003874 Ha          -0.00105427 eV
  | Sum of eigenvalues per atom                           :        -331.17942200 eV
  | Total energy (T->0) per atom                          :        -597.06192903 eV  <-- do not rely on this value for anything but (periodic) metals
  | Electronic free energy per atom                       :        -597.06233202 eV

  Self-consistency convergence accuracy:
  | Change of charge density      : 0.1414E+00
  | Change of sum of eigenvalues  : -.5628E+01 eV
  | Change of total energy        : -.9529E-02 eV

  End self-consistency iteration #     3       :  max(cpu_time)    wall_clock(cpu1)
  | Time for this iteration                    :        0.415 s           0.414 s
  | Charge density update                      :        0.134 s           0.133 s
  | Density mixing                             :        0.003 s           0.003 s
  | Hartree multipole update                   :        0.002 s           0.002 s
  | Hartree multipole summation                :        0.073 s           0.073 s
  | Integration                                :        0.194 s           0.194 s
  | Solution of K.-S. eqns.                    :        0.008 s           0.008 s
  | Total energy evaluation                    :        0.001 s           0.000 s
------------------------------------------------------------

------------------------------------------------------------
          Begin self-consistency iteration #    4

  Date     :  20150727, Time     :  130048.359
------------------------------------------------------------
  Evaluating new KS density.
  Integration grid: deviation in total charge (<rho> - N_e) =   9.087842E-12
  Pulay mixing of updated and previous charge densities.

  Evaluating partitioned Hartree potential by multipole expansion.
  | Analytical far-field extrapolation by fixed multipoles:
  | Hartree multipole sum: apparent total charge =  -0.324263E-05
  Summing up the Hartree potential.
  Time summed over all CPUs for potential: real work        0.572 s, elapsed        0.576 s
  | RMS charge density error from multipole expansion :   0.110539E-01

  Integrating Hamiltonian matrix: batch-based integration.
  Time summed over all CPUs for integration: real work        1.487 s, elapsed        1.540 s

  Updating Kohn-Sham eigenvalues, eigenvectors, occupation numbers, and Fermi level.
  Solving generalized eigenproblem
  Updating Kohn-Sham eigenvalues and eigenfunctions.
  Solving real generalised eigenvalue problem by standard LAPACK (fast)
  Determining occupation numbers for Kohn-Sham eigenstates.
  | Chemical potential (Fermi level) in eV                 : -.22553002E+01
  | Error in electron count due to remaining E_F inaccuracy: 0.00000000E+00
  | Maximum occupation number of highest empty state:  0.00E+00

  Highest occupied state (VBM) at     -2.25530018 eV
  | Occupation number:      1.00000000

  Lowest unoccupied state (CBM) at    -2.25530018 eV
  | Occupation number:      1.00000000

  Overall HOMO-LUMO gap:      0.00000000 eV.

  Total energy components:
  | Sum of eigenvalues            :         -84.86141884 Ha       -2309.19669724 eV
  | XC energy correction          :         -18.86914248 Ha        -513.45549133 eV
  | XC potential correction       :          24.11951187 Ha         656.32531140 eV
  | Free-atom electrostatic energy:         -71.54325223 Ha       -1946.79094476 eV
  | Hartree energy correction     :          -2.43598155 Ha         -66.28643063 eV
  | van der Waals energy corr.    :           0.00000000 Ha           0.00000000 eV
  | Entropy correction            :          -0.00010367 Ha          -0.00282095 eV
  | ---------------------------
  | Total energy                  :        -153.59028323 Ha       -4179.40425256 eV
  | Total energy, T -> 0          :        -153.59038690 Ha       -4179.40707351 eV  <-- do not rely on this value for anything but (periodic) metals
  | Electronic free energy        :        -153.59049057 Ha       -4179.40989445 eV

  Derived energy quantities:
  | Kinetic energy                :         153.17472609 Ha        4168.09636738 eV
  | Electrostatic energy          :        -287.89586684 Ha       -7834.04512860 eV
  | Energy correction for multipole
  | error in Hartree potential    :          -0.00020320 Ha          -0.00552941 eV
  | Sum of eigenvalues per atom                           :        -329.88524246 eV
  | Total energy (T->0) per atom                          :        -597.05815336 eV  <-- do not rely on this value for anything but (periodic) metals
  | Electronic free energy per atom                       :        -597.05855635 eV

  Self-consistency convergence accuracy:
  | Change of charge density      : 0.5351E-01
  | Change of sum of eigenvalues  : 0.9059E+01 eV
  | Change of total energy        : 0.2643E-01 eV

  End self-consistency iteration #     4       :  max(cpu_time)    wall_clock(cpu1)
  | Time for this iteration                    :        0.414 s           0.414 s
  | Charge density update                      :        0.133 s           0.133 s
  | Density mixing                             :        0.004 s           0.004 s
  | Hartree multipole update                   :        0.003 s           0.003 s
  | Hartree multipole summation                :        0.072 s           0.072 s
  | Integration                                :        0.193 s           0.193 s
  | Solution of K.-S. eqns.                    :        0.008 s           0.009 s
  | Total energy evaluation                    :        0.000 s           0.000 s
------------------------------------------------------------

------------------------------------------------------------
          Begin self-consistency iteration #    5

  Date     :  20150727, Time     :  130048.773
------------------------------------------------------------
  Evaluating new KS density.
  Integration grid: deviation in total charge (<rho> - N_e) =   1.065814E-14
  Pulay mixing of updated and previous charge densities.

  Evaluating partitioned Hartree potential by multipole expansion.
  | Analytical far-field extrapolation by fixed multipoles:
  | Hartree multipole sum: apparent total charge =  -0.320822E-05
  Summing up the Hartree potential.
  Time summed over all CPUs for potential: real work        0.572 s, elapsed        0.576 s
  | RMS charge density error from multipole expansion :   0.109289E-01

  Integrating Hamiltonian matrix: batch-based integration.
  Time summed over all CPUs for integration: real work        1.485 s, elapsed        1.542 s

  Updating Kohn-Sham eigenvalues, eigenvectors, occupation numbers, and Fermi level.
  Solving generalized eigenproblem
  Updating Kohn-Sham eigenvalues and eigenfunctions.
  Solving real generalised eigenvalue problem by standard LAPACK (fast)
  Determining occupation numbers for Kohn-Sham eigenstates.
  | Chemical potential (Fermi level) in eV                 : -.22536476E+01
  | Error in electron count due to remaining E_F inaccuracy: -.13531256E-08
  | Maximum occupation number of highest empty state:  0.00E+00

  Highest occupied state (VBM) at     -8.44577975 eV
  | Occupation number:      2.00000000

  Lowest unoccupied state (CBM) at    -2.25364765 eV
  | Occupation number:      1.00000000

  Overall HOMO-LUMO gap:      6.19213210 eV.

  Total energy components:
  | Sum of eigenvalues            :         -84.90599027 Ha       -2310.40954767 eV
  | XC energy correction          :         -18.86343961 Ha        -513.30030813 eV
  | XC potential correction       :          24.11215166 Ha         656.12503005 eV
  | Free-atom electrostatic energy:         -71.54325223 Ha       -1946.79094476 eV
  | Hartree energy correction     :          -2.38962053 Ha         -65.02488307 eV
  | van der Waals energy corr.    :           0.00000000 Ha           0.00000000 eV
  | Entropy correction            :          -0.00010367 Ha          -0.00282095 eV
  | ---------------------------
  | Total energy                  :        -153.59015097 Ha       -4179.40065356 eV
  | Total energy, T -> 0          :        -153.59025464 Ha       -4179.40347451 eV  <-- do not rely on this value for anything but (periodic) metals
  | Electronic free energy        :        -153.59035831 Ha       -4179.40629546 eV

  Derived energy quantities:
  | Kinetic energy                :         153.17066989 Ha        4167.98599241 eV
  | Electrostatic energy          :        -287.89738125 Ha       -7834.08633784 eV
  | Energy correction for multipole
  | error in Hartree potential    :          -0.00023043 Ha          -0.00627045 eV
  | Sum of eigenvalues per atom                           :        -330.05850681 eV
  | Total energy (T->0) per atom                          :        -597.05763922 eV  <-- do not rely on this value for anything but (periodic) metals
  | Electronic free energy per atom                       :        -597.05804221 eV

  Self-consistency convergence accuracy:
  | Change of charge density      : 0.1018E-01
  | Change of sum of eigenvalues  : -.1213E+01 eV
  | Change of total energy        : 0.3599E-02 eV

  End self-consistency iteration #     5       :  max(cpu_time)    wall_clock(cpu1)
  | Time for this iteration                    :        0.415 s           0.415 s
  | Charge density update                      :        0.134 s           0.133 s
  | Density mixing                             :        0.004 s           0.005 s
  | Hartree multipole update                   :        0.003 s           0.002 s
  | Hartree multipole summation                :        0.072 s           0.073 s
  | Integration                                :        0.194 s           0.193 s
  | Solution of K.-S. eqns.                    :        0.008 s           0.009 s
  | Total energy evaluation                    :        0.000 s           0.000 s
------------------------------------------------------------

------------------------------------------------------------
          Begin self-consistency iteration #    6

  Date     :  20150727, Time     :  130049.188
------------------------------------------------------------
  Evaluating new KS density.
  Integration grid: deviation in total charge (<rho> - N_e) =  -1.353129E-09
  Pulay mixing of updated and previous charge densities.

  Evaluating partitioned Hartree potential by multipole expansion.
  | Analytical far-field extrapolation by fixed multipoles:
  | Hartree multipole sum: apparent total charge =  -0.326465E-05
  Summing up the Hartree potential.
  Time summed over all CPUs for potential: real work        0.572 s, elapsed        0.575 s
  | RMS charge density error from multipole expansion :   0.110914E-01

  Integrating Hamiltonian matrix: batch-based integration.
  Time summed over all CPUs for integration: real work        1.485 s, elapsed        1.541 s

  Updating Kohn-Sham eigenvalues, eigenvectors, occupation numbers, and Fermi level.
  Solving generalized eigenproblem
  Updating Kohn-Sham eigenvalues and eigenfunctions.
  Solving real generalised eigenvalue problem by standard LAPACK (fast)
  Determining occupation numbers for Kohn-Sham eigenstates.
  | Chemical potential (Fermi level) in eV                 : -.22607158E+01
  | Error in electron count due to remaining E_F inaccuracy: 0.10785790E-08
  | Maximum occupation number of highest empty state:  0.00E+00

  Highest occupied state (VBM) at     -2.26071584 eV
  | Occupation number:      1.00000000

  Lowest unoccupied state (CBM) at    -1.25379692 eV
  | Occupation number:      0.00000000

  Overall HOMO-LUMO gap:      1.00691892 eV.

  Total energy components:
  | Sum of eigenvalues            :         -84.92365573 Ha       -2310.89024933 eV
  | XC energy correction          :         -18.86251780 Ha        -513.27522460 eV
  | XC potential correction       :          24.11079517 Ha         656.08811786 eV
  | Free-atom electrostatic energy:         -71.54325223 Ha       -1946.79094476 eV
  | Hartree energy correction     :          -2.37152086 Ha         -64.53236596 eV
  | van der Waals energy corr.    :           0.00000000 Ha           0.00000000 eV
  | Entropy correction            :          -0.00010367 Ha          -0.00282095 eV
  | ---------------------------
  | Total energy                  :        -153.59015146 Ha       -4179.40066679 eV
  | Total energy, T -> 0          :        -153.59025513 Ha       -4179.40348774 eV  <-- do not rely on this value for anything but (periodic) metals
  | Electronic free energy        :        -153.59035880 Ha       -4179.40630869 eV

  Derived energy quantities:
  | Kinetic energy                :         153.16759062 Ha        4167.90220143 eV
  | Electrostatic energy          :        -287.89522428 Ha       -7834.02764362 eV
  | Energy correction for multipole
  | error in Hartree potential    :          -0.00030490 Ha          -0.00829664 eV
  | Sum of eigenvalues per atom                           :        -330.12717848 eV
  | Total energy (T->0) per atom                          :        -597.05764111 eV  <-- do not rely on this value for anything but (periodic) metals
  | Electronic free energy per atom                       :        -597.05804410 eV

  Self-consistency convergence accuracy:
  | Change of charge density      : 0.5338E-02
  | Change of sum of eigenvalues  : -.4807E+00 eV
  | Change of total energy        : -.1323E-04 eV

  End self-consistency iteration #     6       :  max(cpu_time)    wall_clock(cpu1)
  | Time for this iteration                    :        0.416 s           0.415 s
  | Charge density update                      :        0.134 s           0.133 s
  | Density mixing                             :        0.004 s           0.005 s
  | Hartree multipole update                   :        0.002 s           0.003 s
  | Hartree multipole summation                :        0.073 s           0.072 s
  | Integration                                :        0.193 s           0.193 s
  | Solution of K.-S. eqns.                    :        0.008 s           0.009 s
  | Total energy evaluation                    :        0.001 s           0.000 s
------------------------------------------------------------

------------------------------------------------------------
          Begin self-consistency iteration #    7

  Date     :  20150727, Time     :  130049.603
------------------------------------------------------------
  Evaluating new KS density.
  Integration grid: deviation in total charge (<rho> - N_e) =   1.078593E-09
  Pulay mixing of updated and previous charge densities.

  Evaluating partitioned Hartree potential by multipole expansion.
  | Analytical far-field extrapolation by fixed multipoles:
  | Hartree multipole sum: apparent total charge =  -0.325813E-05
  Summing up the Hartree potential.
  Time summed over all CPUs for potential: real work        0.571 s, elapsed        0.576 s
  | RMS charge density error from multipole expansion :   0.111119E-01

  Integrating Hamiltonian matrix: batch-based integration.
  Time summed over all CPUs for integration: real work        1.486 s, elapsed        1.538 s

  Updating Kohn-Sham eigenvalues, eigenvectors, occupation numbers, and Fermi level.
  Solving generalized eigenproblem
  Updating Kohn-Sham eigenvalues and eigenfunctions.
  Solving real generalised eigenvalue problem by standard LAPACK (fast)
  Determining occupation numbers for Kohn-Sham eigenstates.
  | Chemical potential (Fermi level) in eV                 : -.22706338E+01
  | Error in electron count due to remaining E_F inaccuracy: 0.85812566E-08
  | Maximum occupation number of highest empty state:  0.00E+00

  Highest occupied state (VBM) at     -2.27063379 eV
  | Occupation number:      1.00000001

  Lowest unoccupied state (CBM) at    -1.26131235 eV
  | Occupation number:      0.00000000

  Overall HOMO-LUMO gap:      1.00932144 eV.

  Total energy components:
  | Sum of eigenvalues            :         -84.93239821 Ha       -2311.12814416 eV
  | XC energy correction          :         -18.86174812 Ha        -513.25428032 eV
  | XC potential correction       :          24.10974977 Ha         656.05967114 eV
  | Free-atom electrostatic energy:         -71.54325223 Ha       -1946.79094476 eV
  | Hartree energy correction     :          -2.36250038 Ha         -64.28690624 eV
  | van der Waals energy corr.    :           0.00000000 Ha           0.00000000 eV
  | Entropy correction            :          -0.00010367 Ha          -0.00282095 eV
  | ---------------------------
  | Total energy                  :        -153.59014917 Ha       -4179.40060435 eV
  | Total energy, T -> 0          :        -153.59025283 Ha       -4179.40342529 eV  <-- do not rely on this value for anything but (periodic) metals
  | Electronic free energy        :        -153.59035650 Ha       -4179.40624624 eV

  Derived energy quantities:
  | Kinetic energy                :         153.17752015 Ha        4168.17239757 eV
  | Electrostatic energy          :        -287.90592120 Ha       -7834.31872160 eV
  | Energy correction for multipole
  | error in Hartree potential    :          -0.00033866 Ha          -0.00921550 eV
  | Sum of eigenvalues per atom                           :        -330.16116345 eV
  | Total energy (T->0) per atom                          :        -597.05763218 eV  <-- do not rely on this value for anything but (periodic) metals
  | Electronic free energy per atom                       :        -597.05803518 eV

  Self-consistency convergence accuracy:
  | Change of charge density      : 0.3383E-02
  | Change of sum of eigenvalues  : -.2379E+00 eV
  | Change of total energy        : 0.6245E-04 eV

  End self-consistency iteration #     7       :  max(cpu_time)    wall_clock(cpu1)
  | Time for this iteration                    :        0.415 s           0.416 s
  | Charge density update                      :        0.133 s           0.134 s
  | Density mixing                             :        0.006 s           0.005 s
  | Hartree multipole update                   :        0.002 s           0.003 s
  | Hartree multipole summation                :        0.073 s           0.072 s
  | Integration                                :        0.192 s           0.193 s
  | Solution of K.-S. eqns.                    :        0.009 s           0.008 s
  | Total energy evaluation                    :        0.000 s           0.001 s
------------------------------------------------------------

------------------------------------------------------------
          Begin self-consistency iteration #    8

  Date     :  20150727, Time     :  130050.019
------------------------------------------------------------
  Evaluating new KS density.
  Integration grid: deviation in total charge (<rho> - N_e) =   8.581249E-09
  Pulay mixing of updated and previous charge densities.

  Evaluating partitioned Hartree potential by multipole expansion.
  | Analytical far-field extrapolation by fixed multipoles:
  | Hartree multipole sum: apparent total charge =  -0.322002E-05
  Summing up the Hartree potential.
  Time summed over all CPUs for potential: real work        0.572 s, elapsed        0.576 s
  | RMS charge density error from multipole expansion :   0.111091E-01

  Integrating Hamiltonian matrix: batch-based integration.
  Time summed over all CPUs for integration: real work        1.484 s, elapsed        1.545 s

  Updating Kohn-Sham eigenvalues, eigenvectors, occupation numbers, and Fermi level.
  Solving generalized eigenproblem
  Updating Kohn-Sham eigenvalues and eigenfunctions.
  Solving real generalised eigenvalue problem by standard LAPACK (fast)
  Determining occupation numbers for Kohn-Sham eigenstates.
  | Chemical potential (Fermi level) in eV                 : -.22811746E+01
  | Error in electron count due to remaining E_F inaccuracy: 0.36189718E-09
  | Maximum occupation number of highest empty state:  0.00E+00

  Highest occupied state (VBM) at     -2.28117457 eV
  | Occupation number:      1.00000000

  Lowest unoccupied state (CBM) at    -1.26964621 eV
  | Occupation number:      0.00000000

  Overall HOMO-LUMO gap:      1.01152836 eV.

  Total energy components:
  | Sum of eigenvalues            :         -84.94785761 Ha       -2311.54881576 eV
  | XC energy correction          :         -18.86020036 Ha        -513.21216369 eV
  | XC potential correction       :          24.10769912 Ha         656.00387008 eV
  | Free-atom electrostatic energy:         -71.54325223 Ha       -1946.79094476 eV
  | Hartree energy correction     :          -2.34653635 Ha         -63.85250292 eV
  | van der Waals energy corr.    :           0.00000000 Ha           0.00000000 eV
  | Entropy correction            :          -0.00010367 Ha          -0.00282095 eV
  | ---------------------------
  | Total energy                  :        -153.59014743 Ha       -4179.40055706 eV
  | Total energy, T -> 0          :        -153.59025110 Ha       -4179.40337800 eV  <-- do not rely on this value for anything but (periodic) metals
  | Electronic free energy        :        -153.59035476 Ha       -4179.40619895 eV

  Derived energy quantities:
  | Kinetic energy                :         153.18629229 Ha        4168.41109954 eV
  | Electrostatic energy          :        -287.91623936 Ha       -7834.59949291 eV
  | Energy correction for multipole
  | error in Hartree potential    :          -0.00037602 Ha          -0.01023202 eV
  | Sum of eigenvalues per atom                           :        -330.22125939 eV
  | Total energy (T->0) per atom                          :        -597.05762543 eV  <-- do not rely on this value for anything but (periodic) metals
  | Electronic free energy per atom                       :        -597.05802842 eV

  Self-consistency convergence accuracy:
  | Change of charge density      : 0.1930E-02
  | Change of sum of eigenvalues  : -.4207E+00 eV
  | Change of total energy        : 0.4729E-04 eV

  End self-consistency iteration #     8       :  max(cpu_time)    wall_clock(cpu1)
  | Time for this iteration                    :        0.417 s           0.417 s
  | Charge density update                      :        0.134 s           0.133 s
  | Density mixing                             :        0.006 s           0.006 s
  | Hartree multipole update                   :        0.002 s           0.003 s
  | Hartree multipole summation                :        0.073 s           0.072 s
  | Integration                                :        0.193 s           0.194 s
  | Solution of K.-S. eqns.                    :        0.009 s           0.008 s
  | Total energy evaluation                    :        0.000 s           0.001 s
------------------------------------------------------------

------------------------------------------------------------
          Begin self-consistency iteration #    9

  Date     :  20150727, Time     :  130050.436
------------------------------------------------------------
  Evaluating new KS density.
  Integration grid: deviation in total charge (<rho> - N_e) =   3.619149E-10
  Pulay mixing of updated and previous charge densities.

  Evaluating partitioned Hartree potential by multipole expansion.
  | Analytical far-field extrapolation by fixed multipoles:
  | Hartree multipole sum: apparent total charge =  -0.321655E-05
  Summing up the Hartree potential.
  Time summed over all CPUs for potential: real work        0.572 s, elapsed        0.575 s
  | RMS charge density error from multipole expansion :   0.111092E-01

  Integrating Hamiltonian matrix: batch-based integration.
  Time summed over all CPUs for integration: real work        1.487 s, elapsed        1.553 s

  Updating Kohn-Sham eigenvalues, eigenvectors, occupation numbers, and Fermi level.
  Solving generalized eigenproblem
  Updating Kohn-Sham eigenvalues and eigenfunctions.
  Solving real generalised eigenvalue problem by standard LAPACK (fast)
  Determining occupation numbers for Kohn-Sham eigenstates.
  | Chemical potential (Fermi level) in eV                 : -.22826476E+01
  | Error in electron count due to remaining E_F inaccuracy: -.42632564E-13
  | Maximum occupation number of highest empty state:  0.00E+00

  Highest occupied state (VBM) at     -8.50971766 eV
  | Occupation number:      2.00000000

  Lowest unoccupied state (CBM) at    -2.28264760 eV
  | Occupation number:      1.00000000

  Overall HOMO-LUMO gap:      6.22707007 eV.

  Total energy components:
  | Sum of eigenvalues            :         -84.94736205 Ha       -2311.53533099 eV
  | XC energy correction          :         -18.86028621 Ha        -513.21449972 eV
  | XC potential correction       :          24.10780715 Ha         656.00680991 eV
  | Free-atom electrostatic energy:         -71.54325223 Ha       -1946.79094476 eV
  | Hartree energy correction     :          -2.34705399 Ha         -63.86658867 eV
  | van der Waals energy corr.    :           0.00000000 Ha           0.00000000 eV
  | Entropy correction            :          -0.00010367 Ha          -0.00282095 eV
  | ---------------------------
  | Total energy                  :        -153.59014732 Ha       -4179.40055423 eV
  | Total energy, T -> 0          :        -153.59025099 Ha       -4179.40337518 eV  <-- do not rely on this value for anything but (periodic) metals
  | Electronic free energy        :        -153.59035466 Ha       -4179.40619613 eV

  Derived energy quantities:
  | Kinetic energy                :         153.18772501 Ha        4168.45008585 eV
  | Electrostatic energy          :        -287.91758612 Ha       -7834.63614035 eV
  | Energy correction for multipole
  | error in Hartree potential    :          -0.00037800 Ha          -0.01028591 eV
  | Sum of eigenvalues per atom                           :        -330.21933300 eV
  | Total energy (T->0) per atom                          :        -597.05762503 eV  <-- do not rely on this value for anything but (periodic) metals
  | Electronic free energy per atom                       :        -597.05802802 eV

  Self-consistency convergence accuracy:
  | Change of charge density      : 0.5726E-03
  | Change of sum of eigenvalues  : 0.1348E-01 eV
  | Change of total energy        : 0.2826E-05 eV

  End self-consistency iteration #     9       :  max(cpu_time)    wall_clock(cpu1)
  | Time for this iteration                    :        0.419 s           0.418 s
  | Charge density update                      :        0.134 s           0.133 s
  | Density mixing                             :        0.006 s           0.007 s
  | Hartree multipole update                   :        0.003 s           0.002 s
  | Hartree multipole summation                :        0.072 s           0.073 s
  | Integration                                :        0.195 s           0.194 s
  | Solution of K.-S. eqns.                    :        0.008 s           0.009 s
  | Total energy evaluation                    :        0.000 s           0.000 s
------------------------------------------------------------

------------------------------------------------------------
          Begin self-consistency iteration #   10

  Date     :  20150727, Time     :  130050.854
------------------------------------------------------------
  Evaluating new KS density.
  Integration grid: deviation in total charge (<rho> - N_e) =  -3.552714E-14
  Pulay mixing of updated and previous charge densities.

  Evaluating partitioned Hartree potential by multipole expansion.
  | Analytical far-field extrapolation by fixed multipoles:
  | Hartree multipole sum: apparent total charge =  -0.320398E-05
  Summing up the Hartree potential.
  Time summed over all CPUs for potential: real work        0.571 s, elapsed        0.576 s
  | RMS charge density error from multipole expansion :   0.111154E-01

  Integrating Hamiltonian matrix: batch-based integration.
  Time summed over all CPUs for integration: real work        1.483 s, elapsed        1.545 s

  Updating Kohn-Sham eigenvalues, eigenvectors, occupation numbers, and Fermi level.
  Solving generalized eigenproblem
  Updating Kohn-Sham eigenvalues and eigenfunctions.
  Solving real generalised eigenvalue problem by standard LAPACK (fast)
  Determining occupation numbers for Kohn-Sham eigenstates.
  | Chemical potential (Fermi level) in eV                 : -.22816933E+01
  | Error in electron count due to remaining E_F inaccuracy: 0.12015278E-10
  | Maximum occupation number of highest empty state:  0.00E+00

  Highest occupied state (VBM) at     -2.28169331 eV
  | Occupation number:      1.00000000

  Lowest unoccupied state (CBM) at    -1.26822239 eV
  | Occupation number:      0.00000000

  Overall HOMO-LUMO gap:      1.01347092 eV.

  Total energy components:
  | Sum of eigenvalues            :         -84.94693386 Ha       -2311.52367934 eV
  | XC energy correction          :         -18.86044012 Ha        -513.21868805 eV
  | XC potential correction       :          24.10800448 Ha         656.01217939 eV
  | Free-atom electrostatic energy:         -71.54325223 Ha       -1946.79094476 eV
  | Hartree energy correction     :          -2.34752562 Ha         -63.87942220 eV
  | van der Waals energy corr.    :           0.00000000 Ha           0.00000000 eV
  | Entropy correction            :          -0.00010367 Ha          -0.00282095 eV
  | ---------------------------
  | Total energy                  :        -153.59014735 Ha       -4179.40055496 eV
  | Total energy, T -> 0          :        -153.59025102 Ha       -4179.40337591 eV  <-- do not rely on this value for anything but (periodic) metals
  | Electronic free energy        :        -153.59035469 Ha       -4179.40619686 eV

  Derived energy quantities:
  | Kinetic energy                :         153.18803812 Ha        4168.45860596 eV
  | Electrostatic energy          :        -287.91774534 Ha       -7834.64047287 eV
  | Energy correction for multipole
  | error in Hartree potential    :          -0.00038203 Ha          -0.01039552 eV
  | Sum of eigenvalues per atom                           :        -330.21766848 eV
  | Total energy (T->0) per atom                          :        -597.05762513 eV  <-- do not rely on this value for anything but (periodic) metals
  | Electronic free energy per atom                       :        -597.05802812 eV

  Self-consistency convergence accuracy:
  | Change of charge density      : 0.4003E-03
  | Change of sum of eigenvalues  : 0.1165E-01 eV
  | Change of total energy        : -.7331E-06 eV

  End self-consistency iteration #    10       :  max(cpu_time)    wall_clock(cpu1)
  | Time for this iteration                    :        0.418 s           0.419 s
  | Charge density update                      :        0.133 s           0.134 s
  | Density mixing                             :        0.008 s           0.007 s
  | Hartree multipole update                   :        0.002 s           0.003 s
  | Hartree multipole summation                :        0.073 s           0.072 s
  | Integration                                :        0.194 s           0.194 s
  | Solution of K.-S. eqns.                    :        0.008 s           0.008 s
  | Total energy evaluation                    :        0.000 s           0.001 s
------------------------------------------------------------

------------------------------------------------------------
          Begin self-consistency iteration #   11

  Date     :  20150727, Time     :  130051.273
------------------------------------------------------------
  Evaluating new KS density.
  Integration grid: deviation in total charge (<rho> - N_e) =   1.202238E-11
  Pulay mixing of updated and previous charge densities.

  Evaluating partitioned Hartree potential by multipole expansion.
  | Analytical far-field extrapolation by fixed multipoles:
  | Hartree multipole sum: apparent total charge =  -0.319859E-05
  Summing up the Hartree potential.
  Time summed over all CPUs for potential: real work        0.571 s, elapsed        0.576 s
  | RMS charge density error from multipole expansion :   0.111156E-01

  Integrating Hamiltonian matrix: batch-based integration.
  Time summed over all CPUs for integration: real work        1.481 s, elapsed        1.537 s

[...]

  Highest occupied state (VBM) at     -8.50881143 eV
  | Occupation number:      2.00000000

  Lowest unoccupied state (CBM) at    -2.28142097 eV
  | Occupation number:      0.99999999

  Overall HOMO-LUMO gap:      6.22739046 eV.

  Self-consistency cycle converged.

  End self-consistency iteration #    15       :  max(cpu_time)    wall_clock(cpu1)
  | Time for this iteration                    :        1.060 s           1.060 s
  | Charge density & force component update    :        0.658 s           0.658 s
  | Density mixing                             :        0.007 s           0.007 s
  | Hartree multipole update                   :        0.003 s           0.003 s
  | Hartree multipole summation                :        0.190 s           0.190 s
  | Integration                                :        0.192 s           0.192 s
  | Solution of K.-S. eqns.                    :        0.008 s           0.009 s
  | Total energy evaluation                    :        0.001 s           0.000 s
------------------------------------------------------------
  Obtaining max. number of non-zero basis functions in each batch .
  Evaluating KS electron density on previously omitted grid points.
  Evaluating non-empirical van der Waals correction (Tkatchenko/Scheffler 2009).
  Performing Hirshfeld analysis of fragment charges and moments.
  ----------------------------------------------------------------------
  | Atom     1: O
  |   Hirshfeld charge        :     -0.13740886
  |   Free atom volume        :     23.95238533
  |   Hirshfeld volume        :     24.03584648
  |   Hirshfeld dipole vector :      0.02445750       0.01862815       0.01240471
  |   Hirshfeld dipole moment :      0.03315199
  |   Hirshfeld second moments:      0.03740271      -0.00220118      -0.01226766
  |                                 -0.00220118      -0.01166615      -0.03008633
  |                                 -0.01226766      -0.03008633       0.02369089
  ----------------------------------------------------------------------
  | Atom     2: H
  |   Hirshfeld charge        :      0.01437039
  |   Free atom volume        :     10.44207651
  |   Hirshfeld volume        :     17.70283375
  |   Hirshfeld dipole vector :      0.04674220      -0.05528465      -0.00232369
  |   Hirshfeld dipole moment :      0.07243359
  |   Hirshfeld second moments:     -0.09254781       0.02800324      -0.00078664
  |                                  0.02800324      -0.14396683      -0.01282305
  |                                 -0.00078664      -0.01282305      -0.09663805
  ----------------------------------------------------------------------
  | Atom     3: H
  |   Hirshfeld charge        :      0.08284687
  |   Free atom volume        :     10.44207651
  |   Hirshfeld volume        :     11.73770683
  |   Hirshfeld dipole vector :      0.02272993      -0.00030895      -0.00606587
  |   Hirshfeld dipole moment :      0.02352743
  |   Hirshfeld second moments:      0.00419173      -0.00412852      -0.00251196
  |                                 -0.00412852       0.00449489       0.00344658
  |                                 -0.00251196       0.00344658       0.01123048
  ----------------------------------------------------------------------
  | Atom     4: H
  |   Hirshfeld charge        :      0.05953733
  |   Free atom volume        :     10.44207651
  |   Hirshfeld volume        :     16.31968657
  |   Hirshfeld dipole vector :      0.01198974      -0.01691670      -0.01037793
  |   Hirshfeld dipole moment :      0.02318685
  |   Hirshfeld second moments:     -0.05273166       0.01703186       0.00486525
  |                                  0.01703186      -0.07819867      -0.02106164
  |                                  0.00486525      -0.02106164      -0.09024923
  ----------------------------------------------------------------------
  | Atom     5: O
  |   Hirshfeld charge        :     -0.22363592
  |   Free atom volume        :     23.95238533
  |   Hirshfeld volume        :     23.20934552
  |   Hirshfeld dipole vector :     -0.00358600      -0.02491604       0.02749703
  |   Hirshfeld dipole moment :      0.03727942
  |   Hirshfeld second moments:      0.03983536      -0.01268339       0.00767505
  |                                 -0.01268339       0.01751362       0.04724747
  |                                  0.00767505       0.04724747      -0.01939285
  ----------------------------------------------------------------------
  | Atom     6: H
  |   Hirshfeld charge        :      0.09077686
  |   Free atom volume        :     10.44207651
  |   Hirshfeld volume        :     12.62352551
  |   Hirshfeld dipole vector :      0.02005448       0.03259998       0.03441778
  |   Hirshfeld dipole moment :      0.05147354
  |   Hirshfeld second moments:      0.01320219       0.01145624       0.01516223
  |                                  0.01145624       0.00668224       0.01203867
  |                                  0.01516223       0.01203867      -0.02642537
  ----------------------------------------------------------------------
  | Atom     7: H
  |   Hirshfeld charge        :      0.11355129
  |   Free atom volume        :     10.44207651
  |   Hirshfeld volume        :     10.94506782
  |   Hirshfeld dipole vector :      0.05881873      -0.04379722      -0.00457237
  |   Hirshfeld dipole moment :      0.07347616
  |   Hirshfeld second moments:      0.03422899      -0.00320793      -0.00043692
  |                                 -0.00320793       0.03467272       0.02669473
  |                                 -0.00043692       0.02669473       0.02301240
  ----------------------------------------------------------------------


  Total energy components:
  | Sum of eigenvalues            :         -84.94635362 Ha       -2311.50789019 eV
  | XC energy correction          :         -18.86049140 Ha        -513.22008326 eV
  | XC potential correction       :          24.10807287 Ha         656.01404047 eV
  | Free-atom electrostatic energy:         -71.54325223 Ha       -1946.79094476 eV
  | Hartree energy correction     :          -2.34812307 Ha         -63.89567964 eV
  | van der Waals energy corr.    :          -0.00029584 Ha          -0.00805020 eV
  | Entropy correction            :          -0.00010367 Ha          -0.00282095 eV
  | ---------------------------
  | Total energy                  :        -153.59044328 Ha       -4179.40860757 eV
  | Total energy, T -> 0          :        -153.59054695 Ha       -4179.41142851 eV  <-- do not rely on this value for anything but (periodic) metals
  | Electronic free energy        :        -153.59065061 Ha       -4179.41424946 eV

  Derived energy quantities:
  | Kinetic energy                :         153.18792407 Ha        4168.45550272 eV
  | Electrostatic energy          :        -287.91758012 Ha       -7834.63597683 eV
  | Energy correction for multipole
  | error in Hartree potential    :          -0.00038468 Ha          -0.01046763 eV
  | Sum of eigenvalues per atom                           :        -330.21541288 eV
  | Total energy (T->0) per atom                          :        -597.05877550 eV  <-- do not rely on this value for anything but (periodic) metals
  | Electronic free energy per atom                       :        -597.05917849 eV

  atomic forces [eV/Ang]:
  -----------------------
  atom #    1
   Hellmann-Feynman + Multipole  : -.422107E+01 -.730863E+01 -.745883E+01
   Pulay + GGA                   : 0.265331E+01 0.799277E+01 0.700284E+01
   Van der Waals               : -.646468E-02 -.162336E-02 -.785647E-03
   ----------------------------------------------------------------
   Total forces(   1)            : -.157422E+01 0.682520E+00 -.456776E+00
  atom #    2
   Hellmann-Feynman + Multipole  : 0.515373E+00 -.106001E+01 0.415410E+00
   Pulay + GGA                   : -.733777E-01 0.153902E+00 -.481490E-01
   Van der Waals               : -.227438E-02 -.322094E-03 -.742775E-03
   ----------------------------------------------------------------
   Total forces(   2)            : 0.439721E+00 -.906426E+00 0.366518E+00
  atom #    3
   Hellmann-Feynman + Multipole  : 0.848022E+00 0.932682E-01 -.164798E-01
   Pulay + GGA                   : 0.765402E-01 0.237286E-02 0.247080E-01
   Van der Waals               : -.184407E-03 -.391874E-04 -.313957E-04
   ----------------------------------------------------------------
   Total forces(   3)            : 0.924378E+00 0.956019E-01 0.819677E-02
  atom #    4
   Hellmann-Feynman + Multipole  : 0.306097E-01 -.515645E-02 -.123343E+00
   Pulay + GGA                   : -.337671E-01 -.275128E-01 0.163156E+00
   Van der Waals               : -.388514E-02 -.143398E-02 0.807094E-03
   ----------------------------------------------------------------
   Total forces(   4)            : -.704256E-02 -.341032E-01 0.406203E-01
  atom #    5
   Hellmann-Feynman + Multipole  : -.475875E+01 0.194396E+01 -.988506E+01
   Pulay + GGA                   : 0.626127E+01 -.191856E+01 0.109303E+02
   Van der Waals               : 0.352727E-02 0.766182E-03 -.355144E-03
   ----------------------------------------------------------------
   Total forces(   5)            : 0.150604E+01 0.261691E-01 0.104488E+01
  atom #    6
   Hellmann-Feynman + Multipole  : -.152446E+00 -.541542E+00 -.857639E+00
   Pulay + GGA                   : 0.118660E-01 0.845852E-01 0.112882E+00
   Van der Waals               : 0.503176E-02 0.224596E-02 0.119852E-02
   ----------------------------------------------------------------
   Total forces(   6)            : -.135548E+00 -.454711E+00 -.743559E+00
  atom #    7
   Hellmann-Feynman + Multipole  : -.127716E+01 0.669107E+00 -.282702E+00
   Pulay + GGA                   : 0.117656E+00 -.764787E-01 0.190028E-01
   Van der Waals               : 0.424957E-02 0.406471E-03 -.906562E-04
   ----------------------------------------------------------------
   Total forces(   7)            : -.115525E+01 0.593035E+00 -.263790E+00
  Timings for vdw_correction_hirshfeld (Tkatchenko-Scheffler 2009):
  | CPU time:        1.060 s, Wall clock time:        1.060 s.
  Removing unitary transformations (pure translations, rotations) from forces on atoms.
  Atomic forces before filtering:
  | Net force on center of mass :  -.192960E-02 0.208605E-02 -.390836E-02 eV/A
  | Net torque on center of mass:  0.329651E-02 -.528999E-02 0.236055E-02 eV
  Atomic forces after filtering:
  | Net force on center of mass :  -.356812E-15 0.267609E-15 -.892031E-16 eV/A
  | Net torque on center of mass:  0.171115E-15 0.000000E+00 -.330430E-15 eV
 
  Energy and forces in a compact form:
  | Total energy uncorrected      :         -0.417940860756673E+04 eV
  | Total energy corrected        :         -0.417941142851465E+04 eV  <-- do not rely on this value for anything but (periodic) metals
  | Electronic free energy        :         -0.417941424946257E+04 eV
  Total atomic forces (unitary forces cleaned) [eV/Ang]:
  |   1         -0.157409369979809E+01          0.682233267532773E+00         -0.455484113355004E+00
  |   2          0.439927044750152E+00         -0.906969750579053E+00          0.367105195417109E+00
  |   3          0.924567560602095E+00          0.951777848813990E-01          0.901681817178042E-02
  |   4         -0.670980706095431E-02         -0.334673948621877E-01          0.420900576007166E-01
  |   5          0.150632342564838E+01          0.254612084016779E-01          0.104487813375800E+01
  |   6         -0.134965103542322E+00         -0.454724450966950E+00         -0.744153165463660E+00
  |   7         -0.115504942059927E+01          0.592289335592343E+00         -0.263452926128946E+00
 
  ------------------------------------ 
  Start decomposition of the XC Energy 
  ------------------------------------ 
  Hartree-Fock part   :          0.000000000 Ha              0.000000000 eV
  ------------------------------------ 
  X Energy            :        -18.188251888 Ha           -494.927515519 eV
  C Energy GGA        :         -0.672239508 Ha            -18.292567737 eV
  Total XC Energy     :        -18.860491397 Ha           -513.220083256 eV
  LDA X and C from self-consistent density 
  X Energy LDA        :        -16.388770752 Ha           -445.961142417 eV
  C Energy LDA        :         -1.355919416 Ha            -36.896444593 eV
  ------------------------------------ 
  End decomposition of the XC Energy 
  ------------------------------------ 
  Performing Hirshfeld analysis of fragment charges and moments.
  ----------------------------------------------------------------------
  | Atom     1: O
  |   Hirshfeld charge        :     -0.13740886
  |   Free atom volume        :     23.95238533
  |   Hirshfeld volume        :     24.03584648
  |   Hirshfeld dipole vector :      0.02445750       0.01862815       0.01240471
  |   Hirshfeld dipole moment :      0.03315199
  |   Hirshfeld second moments:      0.03740271      -0.00220118      -0.01226766
  |                                 -0.00220118      -0.01166615      -0.03008633
  |                                 -0.01226766      -0.03008633       0.02369089
  ----------------------------------------------------------------------
  | Atom     2: H
  |   Hirshfeld charge        :      0.01437039
  |   Free atom volume        :     10.44207651
  |   Hirshfeld volume        :     17.70283375
  |   Hirshfeld dipole vector :      0.04674220      -0.05528465      -0.00232369
  |   Hirshfeld dipole moment :      0.07243359
  |   Hirshfeld second moments:     -0.09254781       0.02800324      -0.00078664
  |                                  0.02800324      -0.14396683      -0.01282305
  |                                 -0.00078664      -0.01282305      -0.09663805
  ----------------------------------------------------------------------
  | Atom     3: H
  |   Hirshfeld charge        :      0.08284687
  |   Free atom volume        :     10.44207651
  |   Hirshfeld volume        :     11.73770683
  |   Hirshfeld dipole vector :      0.02272993      -0.00030895      -0.00606587
  |   Hirshfeld dipole moment :      0.02352743
  |   Hirshfeld second moments:      0.00419173      -0.00412852      -0.00251196
  |                                 -0.00412852       0.00449489       0.00344658
  |                                 -0.00251196       0.00344658       0.01123048
  ----------------------------------------------------------------------
  | Atom     4: H
  |   Hirshfeld charge        :      0.05953733
  |   Free atom volume        :     10.44207651
  |   Hirshfeld volume        :     16.31968657
  |   Hirshfeld dipole vector :      0.01198974      -0.01691670      -0.01037793
  |   Hirshfeld dipole moment :      0.02318685
  |   Hirshfeld second moments:     -0.05273166       0.01703186       0.00486525
  |                                  0.01703186      -0.07819867      -0.02106164
  |                                  0.00486525      -0.02106164      -0.09024923
  ----------------------------------------------------------------------
  | Atom     5: O
  |   Hirshfeld charge        :     -0.22363592
  |   Free atom volume        :     23.95238533
  |   Hirshfeld volume        :     23.20934552
  |   Hirshfeld dipole vector :     -0.00358600      -0.02491604       0.02749703
  |   Hirshfeld dipole moment :      0.03727942
  |   Hirshfeld second moments:      0.03983536      -0.01268339       0.00767505
  |                                 -0.01268339       0.01751362       0.04724747
  |                                  0.00767505       0.04724747      -0.01939285
  ----------------------------------------------------------------------
  | Atom     6: H
  |   Hirshfeld charge        :      0.09077686
  |   Free atom volume        :     10.44207651
  |   Hirshfeld volume        :     12.62352551
  |   Hirshfeld dipole vector :      0.02005448       0.03259998       0.03441778
  |   Hirshfeld dipole moment :      0.05147354
  |   Hirshfeld second moments:      0.01320219       0.01145624       0.01516223
  |                                  0.01145624       0.00668224       0.01203867
  |                                  0.01516223       0.01203867      -0.02642537
  ----------------------------------------------------------------------
  | Atom     7: H
  |   Hirshfeld charge        :      0.11355129
  |   Free atom volume        :     10.44207651
  |   Hirshfeld volume        :     10.94506782
  |   Hirshfeld dipole vector :      0.05881873      -0.04379722      -0.00457237
  |   Hirshfeld dipole moment :      0.07347616
  |   Hirshfeld second moments:      0.03422899      -0.00320793      -0.00043692
  |                                 -0.00320793       0.03467272       0.02669473
  |                                 -0.00043692       0.02669473       0.02301240
  ----------------------------------------------------------------------


------------------------------------------------------------------------------
  Final output of selected total energy values:

  The following output summarizes some interesting total energy values
  at the end of a run (AFTER all relaxation, molecular dynamics, etc.).

  | Total energy of the DFT / Hartree-Fock s.c.f. calculation      :          -4179.408607567 eV
  | Final zero-broadening corrected energy (caution - metals only) :          -4179.411428515 eV
  | For reference only, the value of 1 Hartree used in FHI-aims is :             27.211384500 eV

  Before relying on these values, please be sure to understand exactly which
  total energy value is referred to by a given number. Different objects may
  all carry the same name 'total energy'. Definitions:

  Total energy of the DFT / Hartree-Fock s.c.f. calculation:
  | Note that this energy does not include ANY quantities calculated after the
  | s.c.f. cycle, in particular not ANY RPA, MP2, etc. many-body perturbation terms.

  Final zero-broadening corrected energy:
  | For metallic systems only, a broadening of the occupation numbers at the Fermi
  | level can be extrapolated back to zero broadening by an electron-gas inspired
  | formula. For all systems that are not real metals, this value can be
  | meaningless and should be avoided.

------------------------------------------------------------------------------

------------------------------------------------------------
          Leaving FHI-aims.
          Date     :  20150727, Time     :  130054.167

          Computational steps:
          | Number of self-consistency cycles          :           15

          Detailed time accounting                     :  max(cpu_time)    wall_clock(cpu1)
          | Total time                                 :        8.092 s           8.115 s
          | Preparation time                           :        0.173 s           0.578 s
          | Grid partitioning                          :        0.055 s           0.055 s
          | Preloading free-atom quantities on grid    :        0.014 s           0.013 s
          | Free-atom superposition energy             :        0.019 s           0.019 s
          | Total time for integrations                :        3.193 s           3.192 s
          | Total time for solution of K.-S. equations :        0.161 s           0.164 s
          | Total time for density & force components  :        2.531 s           2.529 s
          | Total time for mixing                      :        0.083 s           0.084 s
          | Total time for Hartree multipole update    :        0.037 s           0.040 s
          | Total time for Hartree multipole sum       :        1.324 s           1.321 s
          | Total time for total energy evaluation     :        0.004 s           0.006 s
          | Total time for scaled ZORA corrections     :        0.000 s           0.000 s
          | Total time for TS (2009) vdW correction    :        0.013 s           0.014 s

          Have a nice day.
------------------------------------------------------------
