  MPI-parallelism will be employed.
------------------------------------------------------------
          Invoking FHI-aims ...
          Version 081213
          Compiled on 2013/08/29 at 17:41:06 on host generoso.

          When using FHI-aims, please cite the following reference:

          Volker Blum, Ralf Gehrke, Felix Hanke, Paula Havu,
          Ville Havu, Xinguo Ren, Karsten Reuter, and Matthias Scheffler,
          'Ab Initio Molecular Simulations with Numeric Atom-Centered Orbitals: FHI-aims',
          Computer Physics Communications 180, 2175-2196 (2009)

          For any questions about FHI-aims, please visit the aimsclub website
          with its forums and wiki. Contributions to both the forums and the
          wiki are warmly encouraged - they are for you, and everyone is welcome there.

------------------------------------------------------------

  Date     :  20150727, Time     :  125104.484
  Time zero on CPU 1             :   0.459920000000000E-01  s.
  Internal wall clock time zero  :           207233464.484  s.

  Using        8 parallel tasks.
  Task        0 on host gen59 reporting.
  Task        1 on host gen59 reporting.
  Task        2 on host gen59 reporting.
  Task        3 on host gen59 reporting.
  Task        4 on host gen59 reporting.
  Task        5 on host gen59 reporting.
  Task        6 on host gen59 reporting.
  Task        7 on host gen59 reporting.

  Performing system and environment tests:
  | Environment variable OMP_NUM_THREADS correctly set to 1.
  | Checking for scalapack...
  | No scalapack compiled in.

  Obtaining array dimensions for all initial allocations:
  
  -----------------------------------------------------------------------
  Parsing control.in (first pass over file, find array dimensions only).
  The contents of control.in will be repeated verbatim below
  unless switched off by setting 'verbatim_writeout .false.' .
  in the first line of control.in .
  -----------------------------------------------------------------------
  
  #########################################################################################
  #
  #  Volker Blum, FHI 2008 : Test run input file control.in
  #
  #########################################################################################
  #
  #  Physical model
  #
    xc                 rpbe
    spin               none
    relativistic       atomic_zora scalar
    charge             0.
   vdw_correction_hirshfeld
  #
  #  SCF convergence
  #
    occupation_type    gaussian 0.01
    mixer              pulay
      n_max_pulay        10
      charge_mix_param   0.1
    sc_accuracy_rho    5E-5
    sc_accuracy_eev    5E-3
    sc_accuracy_etot   5E-6
    sc_iter_limit      3000
  #
  #  Eigenvalue solver
  #
    KS_method          lapack
      empty_states       8
      basis_threshold    0.e-5
  #
  #  Efficiency
  #
  #   all previous settings are now default, except stratmann still
  #   undecided. Continue to handle stratmann with care, if at all.
  #
  #  partition_type stratmann
    partition_type rho_r2
  #  hartree_partition_type stratmann
  #
  #  Oprions for large clusters (100's of atoms: memory saving / better scaling)
  #
  # for periodic systems:
  #
    density_update_method orbital
    packed_matrix_format none
  #  k_grid 6 6 6
  #  output k_eigenvalue 1
  #  distributed_spline_storage .true.
  #
  #  Relaxation
  #
  #  relax_geometry   bfgs 5.e-3
    sc_accuracy_forces 5.E-4
    final_forces_cleaned .true.
  #
  #  Output options
  #
  #  output mulliken
    output Hirshfeld
  #  output dipole
  
  #harmonic_length_scale 0.001
  
  ################################################################################
  #
  #  FHI-aims code project
  #  VB, Fritz-Haber Institut, 2007
  #
  #  Suggested "safe" defaults for H atom (to be pasted into control.in file)
  #  Basis constructed for a non-relativistic H2 molecule using the
  #  PW-LDA functional.
  #
  ################################################################################
    species        H
  #     global species definitions
      nucleus             1
      cut_pot             4.0  2.0  1.0
      cut_free_atom       finite 8.0
      logarithmic         0.00010000 100.00  1.0123
      basis_dep_cutoff    1d-4  # 1d-4 is safe default - please check 5d-4 if you wish!
      radial_base         24 7.0
      radial_multiplier   2
      angular_grids       specified
        division   0.2783  110
        division   0.3822  194
        division   0.5626  302
  #      division   0.5922  434
  #      division   0.6227  590
  #      division   0.7206  770
        outer_grid  302
      l_hartree           4
  ################################################################################
  #
  #  Definition of "minimal" basis
  #
  ################################################################################
  #     valence basis states
      valence      1  s   1.
  #     ion occupancy
      ion_occ      1  s   0.5
  ################################################################################
  #
  #  Suggested additional basis functions. For production calculations,
  #  uncomment them one after another (the most important basis functions are
  #  listed first).
  #
  ################################################################################
  #  "First tier" - improvements: -1014.90 meV to -62.69 meV
       hydro 2 s 2.1
       hydro 2 p 3.5
  #  "Second tier" - improvements: -12.89 meV to -1.83 meV
       hydro 1 s 0.85
       hydro 2 p 3.7
       hydro 2 s 1.2
       hydro 3 d 7
  #  "Third tier" - improvements: -0.25 meV to -0.12 meV
  #     hydro 4 f 11.2
  #     hydro 3 p 4.8
  #     hydro 4 d 9
  #     hydro 3 s 3.2
  
  ################################################################################
  #
  #  FHI-aims code project
  #  VB, Fritz-Haber Institut, 2007
  #
  #  Suggested "safe" defaults for O atom (to be pasted into control.in file)
  #  All values have been tested for a non-relativistic, non-spinpolarized O2
  #  molecule using the PW-LDA functional. Validity for PBE is expected.
  #
  #  Constructed for dimers: 1.0 A, 1.208 A, 1.5 A, 2.0 A, 3.0 A
  #
  ################################################################################
    species        O
  #     global species definitions
      nucleus             8
      mass                15.9994
      l_hartree           4
      cut_pot             4.0  2.0  1.0
      cut_free_atom       finite 8.0
      basis_dep_cutoff    1d-4  # 1d-4 is safe default - please check 5d-4 if you wish!
      logarithmic         0.00010000 100.00  1.0123
      radial_base         36 7.0
      radial_multiplier   2
       angular_grids specified
        division   0.4087  110
        division   0.5181  194
        division   0.6184  302
  #      division   0.7315  434
  #      division   0.7934  590
  #      division   0.9656  770
  #      division   1.4041  974
  #      outer_grid 974
        outer_grid 302
  ################################################################################
  #
  #  Definition of "minimal" basis
  #
  ################################################################################
  #     valence basis states
      valence      2  s   2.
      valence      2  p   4.
  #     ion occupancy
      ion_occ      2  s   1.
      ion_occ      2  p   3.
  ################################################################################
  #
  #  Suggested additional basis functions. For production calculations,
  #  uncomment them one after another (the most important basis functions are
  #  listed first).
  #
  ################################################################################
  #  "First tier" - improvements: -699.05 meV to -159.38 meV
       hydro 2 p 1.8
       hydro 3 d 7.6
       hydro 3 s 6.4
  #  "Second tier" - improvements: -49.91 meV to -5.39 meV
       hydro 4 f 11.6
       hydro 3 p 6.2
       hydro 3 d 5.6
       hydro 5 g 17.6
       hydro 1 s 0.75
  #  "Third tier" - improvements: -2.83 meV to -0.50 meV
  #     ionic 2 p auto
  #     hydro 4 f 10.8
  #     hydro 4 d 4.7
  #     hydro 2 s 6.8
  #  "Fourth tier" - improvements: -0.40 meV to -0.12 meV
  #     hydro 3 p 5
  #     hydro 3 s 3.3
  #     hydro 5 g 15.6
  #     hydro 4 f 17.6
  #     hydro 4 d 14
  # Further basis functions - -0.08 meV and below
  #     hydro 3 s 2.1
  #     hydro 4 d 11.6
  #     hydro 3 p 16
  #     hydro 2 s 17.2
  
  
  -----------------------------------------------------------------------
  Completed first pass over input file control.in .
  -----------------------------------------------------------------------
  
  
  -----------------------------------------------------------------------
  Parsing geometry.in (first pass over file, find array dimensions only).
  The contents of geometry.in will be repeated verbatim below
  unless switched off by setting 'verbatim_writeout .false.' .
  in the first line of geometry.in .
  -----------------------------------------------------------------------
  
  atom      -4.053030000      0.065001000     -1.525160000  O
  atom      -4.566710000      0.974813000     -1.912820000  H
  atom      -3.067820000      0.330172000     -1.477310000  H
  atom      -4.370360000     -0.049164000     -0.572274000  H
  atom      -5.293160000      2.192130000     -2.328800000  O
  atom      -4.829300000      2.988660000     -1.973850000  H
  atom      -5.428570000      2.328640000     -3.235170000  H
  atom      -1.975360000      2.858040000      0.453140000  O
  atom      -1.223550000      3.375850000      0.786238000  H
  atom      -2.537520000      2.567960000      1.156120000  H
  atom      -5.628340000      3.730740000      1.385610000  O
  atom      -6.090650000      4.418470000      1.860350000  H
  atom      -5.158540000      4.200260000      0.615875000  H
  
  -----------------------------------------------------------------------
  Completed first pass over input file geometry.in .
  -----------------------------------------------------------------------
  
 
  Basic array size parameters: 
  | Number of species                 :        2
  | Number of atoms                   :       13
  | Max. basis fn. angular momentum   :        4
  | Max. atomic/ionic basis occupied n:        2
  | Max. number of basis fn. types    :        2
  | Max. radial fns per species/type  :        8
  | Max. logarithmic grid size        :     1301
  | Max. radial integration grid size :       73
  | Max. angular integration grid size:      302
  | Max. angular grid division number :        8
  | Radial grid for Hartree potential :     1301
  | Number of spin channels           :        1

------------------------------------------------------------
          Reading file control.in.
------------------------------------------------------------
  XC: Using RPBE gradient-corrected functionals.
  Spin treatment: No spin polarisation.
  Scalar relativistic treatment of kinetic energy: on-site free-atom approximation to ZORA.
  Charge =   0.000000E+00: Neutral system requested explicitly.
  Using non-empirical van der Waals correction (Hirshfeld partitioning):
  Occupation type: Gaussian broadening, width =   0.100000E-01 eV.
  Using pulay charge density mixing.
  Pulay mixing - number of memorized iterations:   10
  Charge density mixing - mixing parameter:     0.1000
  Convergence accuracy of self-consistent charge density: 0.5000E-04
  Convergence accuracy of sum of eigenvalues: 0.5000E-02
  Convergence accuracy of total energy: 0.5000E-05
  Maximum number of s.-c. iterations  :  3000
  Kohn-Sham eigenvalues and eigenfunctions calculated by lapack diagonalisation (D&C).
  Number of empty states per atom:        8
  Threshold for basis singularities: 0.0000E+00
  Partition function in integrals calculations: rho / r^2
 Using packed matrix format           0
  Convergence accuracy of forces: 0.5000E-03
  Cleaning forces before final output.
  Hirshfeld charge analysis will be performed.
 
  Reading configuration options for species H                   .
  | Found nuclear charge :   1.0000
  | Found cutoff potl. onset [A], width [A], scale factor :    4.00000    2.00000    1.00000
  | Found cutoff specification for free atom: Cutoff potential begins at    8.00000 A.
  | Found logarithmic grid data [bohr] : 0.1000E-03 0.1000E+03 0.1012E+01
  | Threshold for basis-dependent cutoff potential is   0.100000E-03
  | Found data for basic radial integration grid :    24 points, outermost radius =    7.000 A
  | Found multiplier for basic radial grid :   2
  | Found angular grid specification: user-specified.
  | Specified grid contains     4 separate shells.
  | Check grid settings after all constraints further below.
  | Found l_max for Hartree potential  :   4
  | Found free-atom valence shell :  1 s   1.000
  | No ionic wave fns used. Skipping ion_occ.
  | Found hydrogenic basis function :  2 s   2.100
  | Found hydrogenic basis function :  2 p   3.500
  | Found hydrogenic basis function :  1 s   0.850
  | Found hydrogenic basis function :  2 p   3.700
  | Found hydrogenic basis function :  2 s   1.200
  | Found hydrogenic basis function :  3 d   7.000
  Species H                   : Missing cutoff potential type.
  Defaulting to exp(1/x)/(1-x)^2 type cutoff potential.
  Species H : On-site basis accuracy parameter (for Gram-Schmidt orthonormalisation) not specified.
  Using default value basis_acc =  0.1000000E-03.
  Species H                   : Using default innermost maximum threshold i_radial=  2 for radial functions.
  Species H                   : Basic radial grid will be enhanced according to radial_multiplier =   2, to contain    49 grid points.
 
  Reading configuration options for species O                   .
  | Found nuclear charge :   8.0000
  | Found atomic mass :    15.9994000000000      amu
  | Found l_max for Hartree potential  :   4
  | Found cutoff potl. onset [A], width [A], scale factor :    4.00000    2.00000    1.00000
  | Found cutoff specification for free atom: Cutoff potential begins at    8.00000 A.
  | Threshold for basis-dependent cutoff potential is   0.100000E-03
  | Found logarithmic grid data [bohr] : 0.1000E-03 0.1000E+03 0.1012E+01
  | Found data for basic radial integration grid :    36 points, outermost radius =    7.000 A
  | Found multiplier for basic radial grid :   2
  | Found angular grid specification: user-specified.
  | Specified grid contains     4 separate shells.
  | Check grid settings after all constraints further below.
  | Found free-atom valence shell :  2 s   2.000
  | Found free-atom valence shell :  2 p   4.000
  | No ionic wave fns used. Skipping ion_occ.
  | No ionic wave fns used. Skipping ion_occ.
  | Found hydrogenic basis function :  2 p   1.800
  | Found hydrogenic basis function :  3 d   7.600
  | Found hydrogenic basis function :  3 s   6.400
  | Found hydrogenic basis function :  4 f  11.600
  | Found hydrogenic basis function :  3 p   6.200
  | Found hydrogenic basis function :  3 d   5.600
  | Found hydrogenic basis function :  5 g  17.600
  | Found hydrogenic basis function :  1 s   0.750
  Species O                   : Missing cutoff potential type.
  Defaulting to exp(1/x)/(1-x)^2 type cutoff potential.
  Species O : On-site basis accuracy parameter (for Gram-Schmidt orthonormalisation) not specified.
  Using default value basis_acc =  0.1000000E-03.
  Species O                   : Using default innermost maximum threshold i_radial=  2 for radial functions.
  Species O                   : Basic radial grid will be enhanced according to radial_multiplier =   2, to contain    73 grid points.
 
  Finished reading input file 'control.in'. Consistency checks are next.
 
  Target number of points in a grid batch is not set. Defaulting to  100
  Method for grid partitioning is not set. Defaulting to parallel hash+maxmin partitioning.
  Batch size limit is not set. Defaulting to    200
  By default, will store active basis functions for each batch.
  If in need of memory, prune_basis_once .false. can be used to disable this option.
  communication_type for Hartree potential was not specified.
  Defaulting to calc_hartree .
  Pulay mixer: Number of initial linear mixing iterations not set.
  Defaulting to    0 iterations.
  Work space size for distributed Hartree potential not set.
  Defaulting to   0.200000E+03 MB.
  Algorithm-dependent basis array size parameters:
  | n_max_pulay                         :       10
  Geometry relaxation not requested: no relaxation will be performed.
  Handling of forces: Unphysical translation and rotation will be removed from forces.
  No accuracy limit for integral partition fn. given. Defaulting to 0.1000E-14.
  No threshold value for u(r) in integrations given. Defaulting to 0.1000E-05.
  No accuracy for occupation numbers given. Defaulting to 0.1000E-07.
  No threshold value for occupation numbers given. Defaulting to 0.0000E+00.
  No accuracy for fermi level given. Defaulting to 0.1000E-19.
  Maximum # of iterations to find E_F not set. Defaulting to  200.
  Will not use alltoall communication since running on < 1024 CPUs.
  Partitioning for Hartree potential was not defined. Using partition_type for integrals.
  | Reporting present value of keyword multip_moments_threshold  :       0.10000000E-09
  | This value may affect high angular momentum components of the Hartree potential in periodic systems.
  No q(lm)/r^(l+1) cutoff set for long-range Hartree potential.
  | Using default value of  0.100000E-09 .
  | Verify using the multipole_threshold keyword.
  Defaulting to new monopole extrapolation.
  Density update method: Loop over occupied states selected for charge density update.
------------------------------------------------------------


------------------------------------------------------------
          Reading geometry description geometry.in.
------------------------------------------------------------
  Input structure read successfully.
  The structure contains       13 atoms,  and a total of         41.000 electrons.

  Input geometry:
  | No unit cell requested.
  | Atomic structure:
  |       Atom                x [A]            y [A]            z [A]
  |    1: Species O             -4.053030         0.065001        -1.525160
  |    2: Species H             -4.566710         0.974813        -1.912820
  |    3: Species H             -3.067820         0.330172        -1.477310
  |    4: Species H             -4.370360        -0.049164        -0.572274
  |    5: Species O             -5.293160         2.192130        -2.328800
  |    6: Species H             -4.829300         2.988660        -1.973850
  |    7: Species H             -5.428570         2.328640        -3.235170
  |    8: Species O             -1.975360         2.858040         0.453140
  |    9: Species H             -1.223550         3.375850         0.786238
  |   10: Species H             -2.537520         2.567960         1.156120
  |   11: Species O             -5.628340         3.730740         1.385610
  |   12: Species H             -6.090650         4.418470         1.860350
  |   13: Species H             -5.158540         4.200260         0.615875
  |

  | The smallest distance between any two atoms is         0.92654057 AA.
  |
  | The first atom of this pair is atom number                      5 .
  | The second atom of this pair is atom number                     7 .

  Structure-dependent array size parameters: 
  | Maximum number of distinct radial functions  :       18
  | Maximum number of basis functions            :      291
  | Number of Kohn-Sham states (occupied + empty):       73
------------------------------------------------------------

------------------------------------------------------------
          Preparing all fixed parts of the calculation.
------------------------------------------------------------
  Determining machine precision:
    2.225073858507201E-308
  Setting up grids for atomic and cluster calculations.

  Creating wave function, potential, and density for free atoms.

  Species: H

  List of occupied orbitals and eigenvalues:
    n    l              occ      energy [Ha]    energy [eV]
    1    0           1.0000        -0.241408        -6.5691


  Species: O

  List of occupied orbitals and eigenvalues:
    n    l              occ      energy [Ha]    energy [eV]
    1    0           2.0000       -18.944147      -515.4965
    2    0           2.0000        -0.883529       -24.0421
    2    1           4.0000        -0.330176        -8.9845

  Creating fixed part of basis set: Ionic, confined, hydrogenic.
 
  H                    hydrogenic:
 
  List of hydrogenic basis orbitals: 
    n    l      effective z      eigenvalue [eV]  inner max. [A]     outer max. [A]     outer radius [A]   
    2    0         2.100000       -14.9965           0.193241           1.317192           5.372934
    2    1         3.500000       -41.6672           0.602363           0.602363           4.056010
    1    0         0.850000        -9.8292           0.624864           0.624864           5.372934
    2    1         3.700000       -46.5653           0.573616           0.573616           3.909951
    2    0         1.200000        -4.5995           0.334977           2.228160           5.505921
    3    2         7.000000       -74.0753           0.680692           0.680692           3.769152
 
 
  O                    hydrogenic:
 
  List of hydrogenic basis orbitals: 
    n    l      effective z      eigenvalue [eV]  inner max. [A]     outer max. [A]     outer radius [A]   
    2    1         1.800000       -11.0118           1.178546           1.178546           5.432516
    3    2         7.600000       -87.3182           0.624117           0.624117           3.541422
    3    0         6.400000       -61.9209           0.061166           1.081887           4.306510
    4    3        11.600000      -114.4238           0.731621           0.731621           3.584982
    3    1         6.200000       -58.1113           0.255677           1.030255           4.306510
    3    2         5.600000       -47.4081           0.847222           0.847222           4.413102
    5    4        17.600000      -168.5799           0.749730           0.749730           3.372413
    1    0         0.750000        -7.6499           0.705275           0.705275           5.366508
 

  Adding cutoff potential to free-atom effective potential.
  Creating atomic-like basis functions for current effective potential.

  Species H                   :

  List of atomic basis orbitals and eigenvalues:
    n    l      energy [Ha]    energy [eV]    outer radius [A]
    1    0        -0.241374        -6.5681       5.372934


  Species O                   :

  List of atomic basis orbitals and eigenvalues:
    n    l      energy [Ha]    energy [eV]    outer radius [A]
    1    0       -18.944147      -515.4965       1.415745
    2    0        -0.883529       -24.0421       5.048305
    2    1        -0.330173        -8.9845       5.301302

  Assembling full basis from fixed parts.
  | Species H :   atomic orbital   1 s accepted.
  | Species H :    hydro orbital   2 s accepted.
  | Species H :    hydro orbital   1 s accepted.
  | Species H :    hydro orbital   2 s accepted.
  | Species H :    hydro orbital   2 p accepted.
  | Species H :    hydro orbital   2 p accepted.
  | Species H :    hydro orbital   3 d accepted.
  | Species O :   atomic orbital   1 s accepted.
  | Species O :    hydro orbital   3 s accepted.
  | Species O :   atomic orbital   2 s accepted.
  | Species O :    hydro orbital   1 s accepted.
  | Species O :    hydro orbital   3 p accepted.
  | Species O :   atomic orbital   2 p accepted.
  | Species O :    hydro orbital   2 p accepted.
  | Species O :    hydro orbital   3 d accepted.
  | Species O :    hydro orbital   3 d accepted.
  | Species O :    hydro orbital   4 f accepted.
  | Species O :    hydro orbital   5 g accepted.
 
  Basis size parameters after reduction:
  | Total number of radial functions:       18
  | Total number of basis functions :      291
 
  Testing on-site integration grid accuracy.
  |  Species  Function  <phi|h_atom|phi> (log., in eV)  <phi|h_atom|phi> (rad., in eV)
           1        1                 -6.5683835025                 -6.5684759159
           1        2                 13.3711789951                 13.3708738703
           1        3                 23.6590910787                 23.6532055418
           1        4                 16.2963827186                 16.1870710655 ***
           1        5                 28.7627214838                 28.7627215090
           1        6                 59.5965249172                 59.5965950857
           1        7                 60.2220506392                 60.2220503827
           2        8               -515.4964576505               -515.4964530710
           2        9                 15.3030791347                 15.3030722972
           2       10                -21.7296094581                -21.7296135470
           2       11                 14.2969371730                 14.2969701621
           2       12                 21.0679693190                 21.0679697493
           2       13                 -2.3833606469                 -2.3833613176
           2       14                 13.7067136422                 13.7066766629
           2       15                 45.8013116808                 45.8013116965
           2       16                 52.2309815402                 52.2309831494
           2       17                 85.4120732416                 85.4120732763
           2       18                142.1019167745                142.1019167817
 * Note: Onsite integrals marked "***" above are less accurate than
 * onsite_accuracy_threshold =    0.03000 eV. Usually, this is harmless.
 * When in doubt, tighten the "radial" and/or "radial_multiplier" flags to check.

  Preparing densities etc. for the partition functions (integrals / Hartree potential).

  Preparations completed.
  max(cpu_time)          :      0.170 s.
  Wall clock time (cpu1) :      0.612 s.
------------------------------------------------------------

------------------------------------------------------------
          Begin self-consistency loop: Initialization.

          Date     :  20150727, Time     :  125105.115
------------------------------------------------------------

  Initializing index lists of integration centers etc. from given atomic structure:
  | Number of centers in hartree potential         :        13
  | Number of centers in hartree multipole         :        13
  | Number of centers in electron density summation:        13
  | Number of centers in basis integrals           :        13
  | Number of centers in integrals                 :        13
  Partitioning the integration grid into batches with parallel hashing+maxmin method.
  | Number of batches:     1625
  | Maximal batch size:     200
  | Minimal batch size:      49
  | Average batch size:     103.977
  | Standard deviation of batch sizes:      30.101

  Integration load balanced across     8 MPI tasks.
  Work distribution over tasks is as follows:
  Task     0 has      21059 integration points.
  Task     1 has      21177 integration points.
  Task     2 has      21077 integration points.
  Task     3 has      21163 integration points.
  Task     4 has      21125 integration points.
  Task     5 has      21076 integration points.
  Task     6 has      21161 integration points.
  Task     7 has      21124 integration points.
  Initializing partition tables, free-atom densities, potentials, etc. across the integration grid (initialize_grid_storage).
  | Net number of integration points:   168962
  | of which are non-zero points    :   168430
  Obtaining max. number of non-zero basis functions in each batch (get_n_compute_maxes).
  | Maximal number of non-zero basis functions:      288 in task     0
  | Maximal number of non-zero basis functions:      288 in task     1
  | Maximal number of non-zero basis functions:      288 in task     2
  | Maximal number of non-zero basis functions:      289 in task     3
  | Maximal number of non-zero basis functions:      288 in task     4
  | Maximal number of non-zero basis functions:      288 in task     5
  | Maximal number of non-zero basis functions:      288 in task     6
  | Maximal number of non-zero basis functions:      288 in task     7
  Integrating Hamiltonian matrix: batch-based integration.
  Time summed over all CPUs for integration: real work        4.742 s, elapsed        4.963 s
  Integrating overlap matrix.
  Time summed over all CPUs for integration: real work        2.508 s, elapsed        2.630 s

  Updating Kohn-Sham eigenvalues, eigenvectors, occupation numbers, and Fermi level.
  Solving generalized eigenproblem
  Updating Kohn-Sham eigenvalues and eigenfunctions.
  Transforming overlap matrix and checking for singularities.
  Overlap matrix is nonsingular:
  | Lowest eigenvalue:  0.318161E-03
  Solving real generalised eigenvalue problem by standard LAPACK (fast)
  Determining occupation numbers for Kohn-Sham eigenstates.
  | Chemical potential (Fermi level) in eV                 : -.27993653E+01
  | Error in electron count due to remaining E_F inaccuracy: -.26248870E-09
  | Maximum occupation number of highest empty state:  0.00E+00

  Writing Kohn-Sham eigenvalues.

  State    Occupation    Eigenvalue [Ha]    Eigenvalue [eV]
      1       2.00000         -19.064884         -518.78189
      2       2.00000         -19.064860         -518.78123
      3       2.00000         -19.054467         -518.49842
      4       2.00000         -19.044520         -518.22777
      5       2.00000          -1.127489          -30.68055
      6       2.00000          -1.112508          -30.27289
      7       2.00000          -1.103384          -30.02461
      8       2.00000          -1.089122          -29.63653
      9       2.00000          -0.650830          -17.70999
     10       2.00000          -0.646565          -17.59393
     11       2.00000          -0.627455          -17.07393
     12       2.00000          -0.619893          -16.86814
     13       2.00000          -0.618275          -16.82411
     14       2.00000          -0.524846          -14.28178
     15       2.00000          -0.501630          -13.65004
     16       2.00000          -0.501126          -13.63632
     17       2.00000          -0.487133          -13.25556
     18       2.00000          -0.452530          -12.31396
     19       2.00000          -0.438093          -11.92112
     20       2.00000          -0.430133          -11.70451
     21       1.00000          -0.102875           -2.79937
     22       0.00000          -0.072298           -1.96733
     23       0.00000          -0.060377           -1.64293
     24       0.00000          -0.044931           -1.22263
     25       0.00000          -0.020334           -0.55331
     26       0.00000          -0.011638           -0.31667
     27       0.00000           0.005439            0.14800
     28       0.00000           0.025856            0.70359
     29       0.00000           0.047907            1.30361
     30       0.00000           0.068772            1.87137
     31       0.00000           0.073171            1.99110
     32       0.00000           0.084435            2.29759
     33       0.00000           0.095355            2.59473
     34       0.00000           0.099714            2.71337
     35       0.00000           0.103063            2.80450
     36       0.00000           0.108628            2.95591
     37       0.00000           0.116148            3.16055
     38       0.00000           0.125893            3.42571
     39       0.00000           0.143055            3.89272
     40       0.00000           0.145296            3.95370
     41       0.00000           0.147919            4.02509
     42       0.00000           0.173600            4.72390
     43       0.00000           0.182642            4.96993
     44       0.00000           0.199224            5.42117
     45       0.00000           0.226795            6.17140
     46       0.00000           0.229932            6.25677
     47       0.00000           0.235540            6.40937
     48       0.00000           0.268356            7.30234
     49       0.00000           0.277133            7.54116
     50       0.00000           0.303103            8.24784
     51       0.00000           0.309805            8.43023
     52       0.00000           0.335065            9.11758
     53       0.00000           0.347556            9.45748
     54       0.00000           0.366147            9.96338
     55       0.00000           0.375773           10.22530
     56       0.00000           0.390785           10.63379
     57       0.00000           0.394133           10.72491
     58       0.00000           0.414408           11.27661
     59       0.00000           0.430064           11.70264
     60       0.00000           0.438782           11.93987
     61       0.00000           0.445178           12.11390
     62       0.00000           0.458574           12.47845
     63       0.00000           0.474583           12.91407
     64       0.00000           0.495751           13.49008
     65       0.00000           0.508006           13.82354
     66       0.00000           0.527743           14.36062
     67       0.00000           0.548691           14.93063
     68       0.00000           0.564812           15.36933
     69       0.00000           0.573283           15.59983
     70       0.00000           0.633237           17.23126
     71       0.00000           0.638046           17.36213
     72       0.00000           0.707466           19.25113
     73       0.00000           0.751023           20.43638

  Highest occupied state (VBM) at    -11.70450620 eV
  | Occupation number:      2.00000000

  Lowest unoccupied state (CBM) at    -2.79936527 eV
  | Occupation number:      1.00000000

  Overall HOMO-LUMO gap:      8.90514093 eV.
  Calculating total energy contributions from superposition of free atom densities.

  Total energy components:
  | Sum of eigenvalues            :        -174.42236092 Ha       -4746.27392833 eV
  | XC energy correction          :         -36.80494052 Ha       -1001.51338797 eV
  | XC potential correction       :          47.03161912 Ha        1279.79547141 eV
  | Free-atom electrostatic energy:        -142.73517709 Ha       -3884.02178537 eV
  | Hartree energy correction     :           0.00000000 Ha           0.00000000 eV
  | van der Waals energy corr.    :           0.00000000 Ha           0.00000000 eV
  | Entropy correction            :          -0.00010367 Ha          -0.00282095 eV
  | ---------------------------
  | Total energy                  :        -306.93085941 Ha       -8352.01363025 eV
  | Total energy, T -> 0          :        -306.93096308 Ha       -8352.01645120 eV  <-- do not rely on this value for anything but (periodic) metals
  | Electronic free energy        :        -306.93106674 Ha       -8352.01927215 eV

  Derived energy quantities:
  | Kinetic energy                :         303.96663638 Ha        8271.35301777 eV
  | Electrostatic energy          :        -574.09255527 Ha      -15621.85326006 eV
  | Energy correction for multipole
  | error in Hartree potential    :           0.00000000 Ha           0.00000000 eV
  | Sum of eigenvalues per atom                           :        -365.09799449 eV
  | Total energy (T->0) per atom                          :        -642.46280394 eV  <-- do not rely on this value for anything but (periodic) metals
  | Electronic free energy per atom                       :        -642.46302093 eV
  Initialize hartree_potential_storage
  Max. number of atoms included in rho_multipole:           13

  End scf initialization - timings             :  max(cpu_time)    wall_clock(cpu1)
  | Time for scf. initialization               :        1.382 s           1.382 s
  | Boundary condition initialization          :        0.000 s           0.001 s
  | Integration                                :        0.951 s           0.951 s
  | Solution of K.-S. eqns.                    :        0.134 s           0.135 s
  | Grid partitioning                          :        0.128 s           0.128 s
  | Preloading free-atom quantities on grid    :        0.014 s           0.014 s
  | Free-atom superposition energy             :        0.051 s           0.051 s
  | Total energy evaluation                    :        0.000 s           0.000 s
------------------------------------------------------------

------------------------------------------------------------
          Begin self-consistency iteration #    1

  Date     :  20150727, Time     :  125106.497
------------------------------------------------------------
  Evaluating new KS density.
  Integration grid: deviation in total charge (<rho> - N_e) =  -2.624461E-10
  Pulay mixing of updated and previous charge densities.

  Evaluating partitioned Hartree potential by multipole expansion.
  | Analytical far-field extrapolation by fixed multipoles:
  | Hartree multipole sum: apparent total charge =  -0.131590E-05
  Summing up the Hartree potential.
  Time summed over all CPUs for potential: real work        1.919 s, elapsed        1.932 s
  | RMS charge density error from multipole expansion :   0.152871E-02

  Integrating Hamiltonian matrix: batch-based integration.
  Time summed over all CPUs for integration: real work        4.728 s, elapsed        4.948 s

  Updating Kohn-Sham eigenvalues, eigenvectors, occupation numbers, and Fermi level.
  Solving generalized eigenproblem
  Updating Kohn-Sham eigenvalues and eigenfunctions.
  Solving real generalised eigenvalue problem by standard LAPACK (fast)
  Determining occupation numbers for Kohn-Sham eigenstates.
  | Chemical potential (Fermi level) in eV                 : -.26222624E+01
  | Error in electron count due to remaining E_F inaccuracy: 0.14187478E-08
  | Maximum occupation number of highest empty state:  0.00E+00

  Writing Kohn-Sham eigenvalues.

  State    Occupation    Eigenvalue [Ha]    Eigenvalue [eV]
      1       2.00000         -19.017132         -517.48249
      2       2.00000         -18.995852         -516.90343
      3       2.00000         -18.971103         -516.22998
      4       2.00000         -18.961647         -515.97266
      5       2.00000          -1.103092          -30.01665
      6       2.00000          -1.083945          -29.49566
      7       2.00000          -1.061307          -28.87964
      8       2.00000          -1.046469          -28.47587
      9       2.00000          -0.623110          -16.95570
     10       2.00000          -0.610579          -16.61470
     11       2.00000          -0.610085          -16.60126
     12       2.00000          -0.600228          -16.33304
     13       2.00000          -0.581402          -15.82076
     14       2.00000          -0.496624          -13.51382
     15       2.00000          -0.462907          -12.59635
     16       2.00000          -0.459165          -12.49452
     17       2.00000          -0.458575          -12.47846
     18       2.00000          -0.419942          -11.42721
     19       2.00000          -0.394507          -10.73508
     20       2.00000          -0.385744          -10.49663
     21       1.00000          -0.096366           -2.62226
     22       0.00000          -0.065028           -1.76949
     23       0.00000          -0.052821           -1.43734
     24       0.00000          -0.037793           -1.02841
     25       0.00000          -0.015721           -0.42779
     26       0.00000          -0.004430           -0.12054
     27       0.00000           0.013465            0.36641
     28       0.00000           0.034679            0.94368
     29       0.00000           0.052223            1.42106
     30       0.00000           0.073422            1.99791
     31       0.00000           0.078348            2.13197
     32       0.00000           0.092766            2.52429
     33       0.00000           0.101371            2.75843
     34       0.00000           0.107928            2.93687
     35       0.00000           0.112091            3.05015
     36       0.00000           0.115546            3.14417
     37       0.00000           0.123683            3.36559
     38       0.00000           0.133725            3.63884
     39       0.00000           0.149509            4.06835
     40       0.00000           0.153485            4.17655
     41       0.00000           0.154919            4.21556
     42       0.00000           0.181648            4.94289
     43       0.00000           0.190320            5.17888
     44       0.00000           0.207863            5.65625
     45       0.00000           0.231375            6.29605
     46       0.00000           0.235629            6.41180
     47       0.00000           0.241145            6.56190
     48       0.00000           0.275570            7.49865
     49       0.00000           0.283359            7.71060
     50       0.00000           0.307711            8.37325
     51       0.00000           0.317177            8.63081
     52       0.00000           0.342543            9.32106
     53       0.00000           0.354423            9.64433
     54       0.00000           0.372062           10.12433
     55       0.00000           0.383559           10.43717
     56       0.00000           0.395487           10.76174
     57       0.00000           0.402046           10.94022
     58       0.00000           0.423255           11.51735
     59       0.00000           0.438868           11.94222
     60       0.00000           0.448641           12.20816
     61       0.00000           0.454957           12.38001
     62       0.00000           0.465653           12.67106
     63       0.00000           0.484480           13.18337
     64       0.00000           0.503655           13.70514
     65       0.00000           0.519992           14.14971
     66       0.00000           0.537866           14.63608
     67       0.00000           0.556933           15.15491
     68       0.00000           0.575409           15.65768
     69       0.00000           0.586233           15.95221
     70       0.00000           0.639649           17.40574
     71       0.00000           0.648212           17.63874
     72       0.00000           0.718138           19.54153
     73       0.00000           0.761524           20.72213

  Highest occupied state (VBM) at     -2.62226238 eV
  | Occupation number:      1.00000000

  Lowest unoccupied state (CBM) at    -1.76949436 eV
  | Occupation number:      0.00000000

  Overall HOMO-LUMO gap:      0.85276802 eV.

  Total energy components:
  | Sum of eigenvalues            :        -172.78319851 Ha       -4701.67004982 eV
  | XC energy correction          :         -36.98515582 Ha       -1006.41729588 eV
  | XC potential correction       :          47.26734123 Ha        1286.20979660 eV
  | Free-atom electrostatic energy:        -142.73517709 Ha       -3884.02178537 eV
  | Hartree energy correction     :          -1.59080625 Ha         -43.28804052 eV
  | van der Waals energy corr.    :           0.00000000 Ha           0.00000000 eV
  | Entropy correction            :          -0.00010367 Ha          -0.00282095 eV
  | ---------------------------
  | Total energy                  :        -306.82699644 Ha       -8349.18737498 eV
  | Total energy, T -> 0          :        -306.82710010 Ha       -8349.19019593 eV  <-- do not rely on this value for anything but (periodic) metals
  | Electronic free energy        :        -306.82720377 Ha       -8349.19301688 eV

  Derived energy quantities:
  | Kinetic energy                :         305.07607338 Ha        8301.54233454 eV
  | Electrostatic energy          :        -574.91791399 Ha      -15644.31241365 eV
  | Energy correction for multipole
  | error in Hartree potential    :           0.00030722 Ha           0.00835992 eV
  | Sum of eigenvalues per atom                           :        -361.66692691 eV
  | Total energy (T->0) per atom                          :        -642.24539969 eV  <-- do not rely on this value for anything but (periodic) metals
  | Electronic free energy per atom                       :        -642.24561668 eV

  Self-consistency convergence accuracy:
  | Change of charge density      : 0.5817E+00
  | Change of sum of eigenvalues  : 0.4460E+02 eV
  | Change of total energy        : 0.2826E+01 eV

  End self-consistency iteration #     1       :  max(cpu_time)    wall_clock(cpu1)
  | Time for this iteration                    :        1.353 s           1.354 s
  | Charge density update                      :        0.447 s           0.448 s
  | Density mixing                             :        0.003 s           0.003 s
  | Hartree multipole update                   :        0.004 s           0.004 s
  | Hartree multipole summation                :        0.242 s           0.242 s
  | Integration                                :        0.620 s           0.619 s
  | Solution of K.-S. eqns.                    :        0.036 s           0.036 s
  | Total energy evaluation                    :        0.000 s           0.001 s
------------------------------------------------------------

------------------------------------------------------------
          Begin self-consistency iteration #    2

  Date     :  20150727, Time     :  125107.851
------------------------------------------------------------
  Evaluating new KS density.
  Integration grid: deviation in total charge (<rho> - N_e) =   1.418776E-09
  Pulay mixing of updated and previous charge densities.

  Evaluating partitioned Hartree potential by multipole expansion.
  | Analytical far-field extrapolation by fixed multipoles:
  | Hartree multipole sum: apparent total charge =  -0.483718E-05
  Summing up the Hartree potential.
  Time summed over all CPUs for potential: real work        1.918 s, elapsed        1.931 s
  | RMS charge density error from multipole expansion :   0.619199E-02

  Integrating Hamiltonian matrix: batch-based integration.
  Time summed over all CPUs for integration: real work        4.714 s, elapsed        4.935 s

  Updating Kohn-Sham eigenvalues, eigenvectors, occupation numbers, and Fermi level.
  Solving generalized eigenproblem
  Updating Kohn-Sham eigenvalues and eigenfunctions.
  Solving real generalised eigenvalue problem by standard LAPACK (fast)
  Determining occupation numbers for Kohn-Sham eigenstates.
  | Chemical potential (Fermi level) in eV                 : -.22114929E+01
  | Error in electron count due to remaining E_F inaccuracy: -.25402400E-08
  | Maximum occupation number of highest empty state:  0.00E+00

  Highest occupied state (VBM) at     -7.65643537 eV
  | Occupation number:      2.00000000

  Lowest unoccupied state (CBM) at    -2.21149288 eV
  | Occupation number:      1.00000000

  Overall HOMO-LUMO gap:      5.44494249 eV.

  Total energy components:
  | Sum of eigenvalues            :        -168.87270759 Ha       -4595.26017787 eV
  | XC energy correction          :         -37.43744307 Ha       -1018.72465809 eV
  | XC potential correction       :          47.85773071 Ha        1302.27511158 eV
  | Free-atom electrostatic energy:        -142.73517709 Ha       -3884.02178537 eV
  | Hartree energy correction     :          -5.52146192 Ha        -150.24662330 eV
  | van der Waals energy corr.    :           0.00000000 Ha           0.00000000 eV
  | Entropy correction            :          -0.00010367 Ha          -0.00282095 eV
  | ---------------------------
  | Total energy                  :        -306.70905896 Ha       -8345.97813305 eV
  | Total energy, T -> 0          :        -306.70916263 Ha       -8345.98095400 eV  <-- do not rely on this value for anything but (periodic) metals
  | Electronic free energy        :        -306.70926630 Ha       -8345.98377495 eV

  Derived energy quantities:
  | Kinetic energy                :         307.37740339 Ha        8364.16471027 eV
  | Electrostatic energy          :        -576.64901928 Ha      -15691.41818523 eV
  | Energy correction for multipole
  | error in Hartree potential    :           0.00063447 Ha           0.01726480 eV
  | Sum of eigenvalues per atom                           :        -353.48155214 eV
  | Total energy (T->0) per atom                          :        -641.99853492 eV  <-- do not rely on this value for anything but (periodic) metals
  | Electronic free energy per atom                       :        -641.99875192 eV

  Self-consistency convergence accuracy:
  | Change of charge density      : 0.4419E+00
  | Change of sum of eigenvalues  : 0.1064E+03 eV
  | Change of total energy        : 0.3209E+01 eV

  End self-consistency iteration #     2       :  max(cpu_time)    wall_clock(cpu1)
  | Time for this iteration                    :        1.349 s           1.349 s
  | Charge density update                      :        0.443 s           0.443 s
  | Density mixing                             :        0.005 s           0.005 s
  | Hartree multipole update                   :        0.004 s           0.004 s
  | Hartree multipole summation                :        0.242 s           0.243 s
  | Integration                                :        0.618 s           0.617 s
  | Solution of K.-S. eqns.                    :        0.036 s           0.036 s
  | Total energy evaluation                    :        0.001 s           0.000 s
------------------------------------------------------------

------------------------------------------------------------
          Begin self-consistency iteration #    3

  Date     :  20150727, Time     :  125109.200
------------------------------------------------------------
  Evaluating new KS density.
  Integration grid: deviation in total charge (<rho> - N_e) =  -2.540204E-09
  Pulay mixing of updated and previous charge densities.

  Evaluating partitioned Hartree potential by multipole expansion.
  | Analytical far-field extrapolation by fixed multipoles:
  | Hartree multipole sum: apparent total charge =  -0.634428E-05
  Summing up the Hartree potential.
  Time summed over all CPUs for potential: real work        1.918 s, elapsed        1.931 s
  | RMS charge density error from multipole expansion :   0.122142E-01

  Integrating Hamiltonian matrix: batch-based integration.
  Time summed over all CPUs for integration: real work        4.708 s, elapsed        4.924 s

  Updating Kohn-Sham eigenvalues, eigenvectors, occupation numbers, and Fermi level.
  Solving generalized eigenproblem
  Updating Kohn-Sham eigenvalues and eigenfunctions.
  Solving real generalised eigenvalue problem by standard LAPACK (fast)
  Determining occupation numbers for Kohn-Sham eigenstates.
  | Chemical potential (Fermi level) in eV                 : -.21621362E+01
  | Error in electron count due to remaining E_F inaccuracy: 0.14317436E-10
  | Maximum occupation number of highest empty state:  0.00E+00

  Highest occupied state (VBM) at     -2.16213618 eV
  | Occupation number:      1.00000000

  Lowest unoccupied state (CBM) at    -1.25943081 eV
  | Occupation number:      0.00000000

  Overall HOMO-LUMO gap:      0.90270536 eV.

  Total energy components:
  | Sum of eigenvalues            :        -169.22436953 Ha       -4604.82938612 eV
  | XC energy correction          :         -37.41317370 Ha       -1018.06425493 eV
  | XC potential correction       :          47.81968137 Ha        1301.23973636 eV
  | Free-atom electrostatic energy:        -142.73517709 Ha       -3884.02178537 eV
  | Hartree energy correction     :          -5.15485028 Ha        -140.27061290 eV
  | van der Waals energy corr.    :           0.00000000 Ha           0.00000000 eV
  | Entropy correction            :          -0.00010367 Ha          -0.00282095 eV
  | ---------------------------
  | Total energy                  :        -306.70788923 Ha       -8345.94630296 eV
  | Total energy, T -> 0          :        -306.70799290 Ha       -8345.94912391 eV  <-- do not rely on this value for anything but (periodic) metals
  | Electronic free energy        :        -306.70809656 Ha       -8345.95194486 eV

  Derived energy quantities:
  | Kinetic energy                :         305.93309346 Ha        8324.86303751 eV
  | Electrostatic energy          :        -575.22780899 Ha      -15652.74508554 eV
  | Energy correction for multipole
  | error in Hartree potential    :          -0.00159253 Ha          -0.04333482 eV
  | Sum of eigenvalues per atom                           :        -354.21764509 eV
  | Total energy (T->0) per atom                          :        -641.99608645 eV  <-- do not rely on this value for anything but (periodic) metals
  | Electronic free energy per atom                       :        -641.99630345 eV

  Self-consistency convergence accuracy:
  | Change of charge density      : 0.2170E+00
  | Change of sum of eigenvalues  : -.9569E+01 eV
  | Change of total energy        : 0.3183E-01 eV

  End self-consistency iteration #     3       :  max(cpu_time)    wall_clock(cpu1)
  | Time for this iteration                    :        1.346 s           1.347 s
  | Charge density update                      :        0.441 s           0.441 s
  | Density mixing                             :        0.006 s           0.006 s
  | Hartree multipole update                   :        0.005 s           0.005 s
  | Hartree multipole summation                :        0.242 s           0.242 s
  | Integration                                :        0.616 s           0.616 s
  | Solution of K.-S. eqns.                    :        0.036 s           0.036 s
  | Total energy evaluation                    :        0.000 s           0.000 s
------------------------------------------------------------

------------------------------------------------------------
          Begin self-consistency iteration #    4

  Date     :  20150727, Time     :  125110.547
------------------------------------------------------------
  Evaluating new KS density.
  Integration grid: deviation in total charge (<rho> - N_e) =   1.432454E-11
  Pulay mixing of updated and previous charge densities.

  Evaluating partitioned Hartree potential by multipole expansion.
  | Analytical far-field extrapolation by fixed multipoles:
  | Hartree multipole sum: apparent total charge =  -0.806200E-05
  Summing up the Hartree potential.
  Time summed over all CPUs for potential: real work        1.918 s, elapsed        1.931 s
  | RMS charge density error from multipole expansion :   0.161079E-01

  Integrating Hamiltonian matrix: batch-based integration.
  Time summed over all CPUs for integration: real work        4.697 s, elapsed        4.914 s

  Updating Kohn-Sham eigenvalues, eigenvectors, occupation numbers, and Fermi level.
  Solving generalized eigenproblem
  Updating Kohn-Sham eigenvalues and eigenfunctions.
  Solving real generalised eigenvalue problem by standard LAPACK (fast)
  Determining occupation numbers for Kohn-Sham eigenstates.
  | Chemical potential (Fermi level) in eV                 : -.20410752E+01
  | Error in electron count due to remaining E_F inaccuracy: 0.00000000E+00
  | Maximum occupation number of highest empty state:  0.00E+00

  Highest occupied state (VBM) at     -2.04107521 eV
  | Occupation number:      1.00000000

  Lowest unoccupied state (CBM) at    -2.04107521 eV
  | Occupation number:      1.00000000

  Overall HOMO-LUMO gap:      0.00000000 eV.

  Total energy components:
  | Sum of eigenvalues            :        -168.17571497 Ha       -4576.29404361 eV
  | XC energy correction          :         -37.55721203 Ha       -1021.98373733 eV
  | XC potential correction       :          48.00547723 Ha        1306.29549908 eV
  | Free-atom electrostatic energy:        -142.73517709 Ha       -3884.02178537 eV
  | Hartree energy correction     :          -6.23916887 Ha        -169.77642313 eV
  | van der Waals energy corr.    :           0.00000000 Ha           0.00000000 eV
  | Entropy correction            :          -0.00010367 Ha          -0.00282095 eV
  | ---------------------------
  | Total energy                  :        -306.70179573 Ha       -8345.78049036 eV
  | Total energy, T -> 0          :        -306.70189939 Ha       -8345.78331131 eV  <-- do not rely on this value for anything but (periodic) metals
  | Electronic free energy        :        -306.70200306 Ha       -8345.78613225 eV

  Derived energy quantities:
  | Kinetic energy                :         306.02792720 Ha        8327.44359484 eV
  | Electrostatic energy          :        -575.17251090 Ha      -15651.24034787 eV
  | Energy correction for multipole
  | error in Hartree potential    :          -0.00244689 Ha          -0.06658323 eV
  | Sum of eigenvalues per atom                           :        -352.02261874 eV
  | Total energy (T->0) per atom                          :        -641.98333164 eV  <-- do not rely on this value for anything but (periodic) metals
  | Electronic free energy per atom                       :        -641.98354863 eV

  Self-consistency convergence accuracy:
  | Change of charge density      : 0.1101E+00
  | Change of sum of eigenvalues  : 0.2854E+02 eV
  | Change of total energy        : 0.1658E+00 eV

  End self-consistency iteration #     4       :  max(cpu_time)    wall_clock(cpu1)
  | Time for this iteration                    :        1.347 s           1.347 s
  | Charge density update                      :        0.442 s           0.442 s
  | Density mixing                             :        0.007 s           0.007 s
  | Hartree multipole update                   :        0.004 s           0.004 s
  | Hartree multipole summation                :        0.242 s           0.242 s
  | Integration                                :        0.615 s           0.615 s
  | Solution of K.-S. eqns.                    :        0.035 s           0.036 s
  | Total energy evaluation                    :        0.000 s           0.001 s
------------------------------------------------------------

------------------------------------------------------------
          Begin self-consistency iteration #    5

  Date     :  20150727, Time     :  125111.894
------------------------------------------------------------
  Evaluating new KS density.
  Integration grid: deviation in total charge (<rho> - N_e) =  -1.421085E-14
  Pulay mixing of updated and previous charge densities.

  Evaluating partitioned Hartree potential by multipole expansion.
  | Analytical far-field extrapolation by fixed multipoles:
  | Hartree multipole sum: apparent total charge =  -0.803673E-05
  Summing up the Hartree potential.
  Time summed over all CPUs for potential: real work        1.918 s, elapsed        1.930 s
  | RMS charge density error from multipole expansion :   0.162850E-01

  Integrating Hamiltonian matrix: batch-based integration.
  Time summed over all CPUs for integration: real work        4.695 s, elapsed        4.916 s

  Updating Kohn-Sham eigenvalues, eigenvectors, occupation numbers, and Fermi level.
  Solving generalized eigenproblem
  Updating Kohn-Sham eigenvalues and eigenfunctions.
  Solving real generalised eigenvalue problem by standard LAPACK (fast)
  Determining occupation numbers for Kohn-Sham eigenstates.
  | Chemical potential (Fermi level) in eV                 : -.20648708E+01
  | Error in electron count due to remaining E_F inaccuracy: 0.00000000E+00
  | Maximum occupation number of highest empty state:  0.00E+00

  Highest occupied state (VBM) at     -2.06487078 eV
  | Occupation number:      1.00000000

  Lowest unoccupied state (CBM) at    -2.06487078 eV
  | Occupation number:      1.00000000

  Overall HOMO-LUMO gap:      0.00000000 eV.

  Total energy components:
  | Sum of eigenvalues            :        -168.23079606 Ha       -4577.79287628 eV
  | XC energy correction          :         -37.55151669 Ha       -1021.82875930 eV
  | XC potential correction       :          47.99762361 Ha        1306.08179102 eV
  | Free-atom electrostatic energy:        -142.73517709 Ha       -3884.02178537 eV
  | Hartree energy correction     :          -6.18171518 Ha        -168.21302875 eV
  | van der Waals energy corr.    :           0.00000000 Ha           0.00000000 eV
  | Entropy correction            :          -0.00010367 Ha          -0.00282095 eV
  | ---------------------------
  | Total energy                  :        -306.70158142 Ha       -8345.77465867 eV
  | Total energy, T -> 0          :        -306.70168508 Ha       -8345.77747962 eV  <-- do not rely on this value for anything but (periodic) metals
  | Electronic free energy        :        -306.70178875 Ha       -8345.78030057 eV

  Derived energy quantities:
  | Kinetic energy                :         306.00983750 Ha        8326.95134895 eV
  | Electrostatic energy          :        -575.15990222 Ha      -15650.89724832 eV
  | Energy correction for multipole
  | error in Hartree potential    :          -0.00250204 Ha          -0.06808403 eV
  | Sum of eigenvalues per atom                           :        -352.13791356 eV
  | Total energy (T->0) per atom                          :        -641.98288305 eV  <-- do not rely on this value for anything but (periodic) metals
  | Electronic free energy per atom                       :        -641.98310004 eV

  Self-consistency convergence accuracy:
  | Change of charge density      : 0.2136E-01
  | Change of sum of eigenvalues  : -.1499E+01 eV
  | Change of total energy        : 0.5832E-02 eV

  End self-consistency iteration #     5       :  max(cpu_time)    wall_clock(cpu1)
  | Time for this iteration                    :        1.348 s           1.347 s
  | Charge density update                      :        0.441 s           0.441 s
  | Density mixing                             :        0.008 s           0.008 s
  | Hartree multipole update                   :        0.004 s           0.005 s
  | Hartree multipole summation                :        0.242 s           0.242 s
  | Integration                                :        0.616 s           0.615 s
  | Solution of K.-S. eqns.                    :        0.035 s           0.036 s
  | Total energy evaluation                    :        0.001 s           0.000 s
------------------------------------------------------------

------------------------------------------------------------
          Begin self-consistency iteration #    6

  Date     :  20150727, Time     :  125113.242
------------------------------------------------------------
  Evaluating new KS density.
  Integration grid: deviation in total charge (<rho> - N_e) =   1.421085E-14
  Pulay mixing of updated and previous charge densities.

  Evaluating partitioned Hartree potential by multipole expansion.
  | Analytical far-field extrapolation by fixed multipoles:
  | Hartree multipole sum: apparent total charge =  -0.808097E-05
  Summing up the Hartree potential.
  Time summed over all CPUs for potential: real work        1.918 s, elapsed        1.931 s
  | RMS charge density error from multipole expansion :   0.164840E-01

  Integrating Hamiltonian matrix: batch-based integration.
  Time summed over all CPUs for integration: real work        4.701 s, elapsed        4.929 s

  Updating Kohn-Sham eigenvalues, eigenvectors, occupation numbers, and Fermi level.
  Solving generalized eigenproblem
  Updating Kohn-Sham eigenvalues and eigenfunctions.
  Solving real generalised eigenvalue problem by standard LAPACK (fast)
  Determining occupation numbers for Kohn-Sham eigenstates.
  | Chemical potential (Fermi level) in eV                 : -.20642030E+01
  | Error in electron count due to remaining E_F inaccuracy: 0.00000000E+00
  | Maximum occupation number of highest empty state:  0.00E+00

  Highest occupied state (VBM) at     -2.06420303 eV
  | Occupation number:      1.00000000

  Lowest unoccupied state (CBM) at    -2.06420303 eV
  | Occupation number:      1.00000000

  Overall HOMO-LUMO gap:      0.00000000 eV.

  Total energy components:
  | Sum of eigenvalues            :        -168.22434421 Ha       -4577.61731268 eV
  | XC energy correction          :         -37.55344042 Ha       -1021.88110661 eV
  | XC potential correction       :          47.99991936 Ha        1306.14426158 eV
  | Free-atom electrostatic energy:        -142.73517709 Ha       -3884.02178537 eV
  | Hartree energy correction     :          -6.18855362 Ha        -168.39911212 eV
  | van der Waals energy corr.    :           0.00000000 Ha           0.00000000 eV
  | Entropy correction            :          -0.00010367 Ha          -0.00282095 eV
  | ---------------------------
  | Total energy                  :        -306.70159599 Ha       -8345.77505519 eV
  | Total energy, T -> 0          :        -306.70169966 Ha       -8345.77787614 eV  <-- do not rely on this value for anything but (periodic) metals
  | Electronic free energy        :        -306.70180332 Ha       -8345.78069709 eV

  Derived energy quantities:
  | Kinetic energy                :         306.00546113 Ha        8326.83226203 eV
  | Electrostatic energy          :        -575.15361670 Ha      -15650.72621061 eV
  | Energy correction for multipole
  | error in Hartree potential    :          -0.00254219 Ha          -0.06917655 eV
  | Sum of eigenvalues per atom                           :        -352.12440867 eV
  | Total energy (T->0) per atom                          :        -641.98291355 eV  <-- do not rely on this value for anything but (periodic) metals
  | Electronic free energy per atom                       :        -641.98313055 eV

  Self-consistency convergence accuracy:
  | Change of charge density      : 0.7866E-02
  | Change of sum of eigenvalues  : 0.1756E+00 eV
  | Change of total energy        : -.3965E-03 eV

  End self-consistency iteration #     6       :  max(cpu_time)    wall_clock(cpu1)
  | Time for this iteration                    :        1.351 s           1.350 s
  | Charge density update                      :        0.441 s           0.441 s
  | Density mixing                             :        0.010 s           0.009 s
  | Hartree multipole update                   :        0.004 s           0.005 s
  | Hartree multipole summation                :        0.242 s           0.242 s
  | Integration                                :        0.617 s           0.617 s
  | Solution of K.-S. eqns.                    :        0.036 s           0.036 s
  | Total energy evaluation                    :        0.000 s           0.000 s
------------------------------------------------------------

------------------------------------------------------------
          Begin self-consistency iteration #    7

  Date     :  20150727, Time     :  125114.592
------------------------------------------------------------
  Evaluating new KS density.
  Integration grid: deviation in total charge (<rho> - N_e) =   4.263256E-14
  Pulay mixing of updated and previous charge densities.

  Evaluating partitioned Hartree potential by multipole expansion.
  | Analytical far-field extrapolation by fixed multipoles:
  | Hartree multipole sum: apparent total charge =  -0.809651E-05
  Summing up the Hartree potential.
  Time summed over all CPUs for potential: real work        1.918 s, elapsed        1.932 s
  | RMS charge density error from multipole expansion :   0.165758E-01

  Integrating Hamiltonian matrix: batch-based integration.
  Time summed over all CPUs for integration: real work        4.703 s, elapsed        4.928 s

  Updating Kohn-Sham eigenvalues, eigenvectors, occupation numbers, and Fermi level.
  Solving generalized eigenproblem
  Updating Kohn-Sham eigenvalues and eigenfunctions.
  Solving real generalised eigenvalue problem by standard LAPACK (fast)
  Determining occupation numbers for Kohn-Sham eigenstates.
  | Chemical potential (Fermi level) in eV                 : -.20657279E+01
  | Error in electron count due to remaining E_F inaccuracy: 0.00000000E+00
  | Maximum occupation number of highest empty state:  0.00E+00

  Highest occupied state (VBM) at     -2.06572785 eV
  | Occupation number:      1.00000000

  Lowest unoccupied state (CBM) at    -2.06572785 eV
  | Occupation number:      1.00000000

  Overall HOMO-LUMO gap:      0.00000000 eV.

  Total energy components:
  | Sum of eigenvalues            :        -168.25247050 Ha       -4578.38266786 eV
  | XC energy correction          :         -37.55059844 Ha       -1021.80377231 eV
  | XC potential correction       :          47.99595884 Ha        1306.03649050 eV
  | Free-atom electrostatic energy:        -142.73517709 Ha       -3884.02178537 eV
  | Hartree energy correction     :          -6.15928904 Ha        -167.60278230 eV
  | van der Waals energy corr.    :           0.00000000 Ha           0.00000000 eV
  | Entropy correction            :          -0.00010367 Ha          -0.00282095 eV
  | ---------------------------
  | Total energy                  :        -306.70157622 Ha       -8345.77451733 eV
  | Total energy, T -> 0          :        -306.70167989 Ha       -8345.77733828 eV  <-- do not rely on this value for anything but (periodic) metals
  | Electronic free energy        :        -306.70178356 Ha       -8345.78015923 eV

  Derived energy quantities:
  | Kinetic energy                :         306.03467073 Ha        8327.62709570 eV
  | Electrostatic energy          :        -575.18564852 Ha      -15651.59784072 eV
  | Energy correction for multipole
  | error in Hartree potential    :          -0.00251879 Ha          -0.06853967 eV
  | Sum of eigenvalues per atom                           :        -352.18328214 eV
  | Total energy (T->0) per atom                          :        -641.98287218 eV  <-- do not rely on this value for anything but (periodic) metals
  | Electronic free energy per atom                       :        -641.98308917 eV

  Self-consistency convergence accuracy:
  | Change of charge density      : 0.6173E-02
  | Change of sum of eigenvalues  : -.7654E+00 eV
  | Change of total energy        : 0.5379E-03 eV

  End self-consistency iteration #     7       :  max(cpu_time)    wall_clock(cpu1)
  | Time for this iteration                    :        1.352 s           1.352 s
  | Charge density update                      :        0.441 s           0.441 s
  | Density mixing                             :        0.010 s           0.011 s
  | Hartree multipole update                   :        0.005 s           0.004 s
  | Hartree multipole summation                :        0.242 s           0.242 s
  | Integration                                :        0.617 s           0.617 s
  | Solution of K.-S. eqns.                    :        0.036 s           0.036 s
  | Total energy evaluation                    :        0.000 s           0.000 s
------------------------------------------------------------

------------------------------------------------------------
          Begin self-consistency iteration #    8

  Date     :  20150727, Time     :  125115.944
------------------------------------------------------------
  Evaluating new KS density.
  Integration grid: deviation in total charge (<rho> - N_e) =  -1.421085E-14
  Pulay mixing of updated and previous charge densities.

  Evaluating partitioned Hartree potential by multipole expansion.
  | Analytical far-field extrapolation by fixed multipoles:
  | Hartree multipole sum: apparent total charge =  -0.814908E-05
  Summing up the Hartree potential.
  Time summed over all CPUs for potential: real work        1.918 s, elapsed        1.931 s
  | RMS charge density error from multipole expansion :   0.165951E-01

  Integrating Hamiltonian matrix: batch-based integration.
  Time summed over all CPUs for integration: real work        4.690 s, elapsed        4.917 s

  Updating Kohn-Sham eigenvalues, eigenvectors, occupation numbers, and Fermi level.
  Solving generalized eigenproblem
  Updating Kohn-Sham eigenvalues and eigenfunctions.
  Solving real generalised eigenvalue problem by standard LAPACK (fast)
  Determining occupation numbers for Kohn-Sham eigenstates.
  | Chemical potential (Fermi level) in eV                 : -.20720924E+01
  | Error in electron count due to remaining E_F inaccuracy: -.33204515E-08
  | Maximum occupation number of highest empty state:  0.00E+00

  Highest occupied state (VBM) at     -6.88460595 eV
  | Occupation number:      2.00000000

  Lowest unoccupied state (CBM) at    -2.07209235 eV
  | Occupation number:      1.00000000

  Overall HOMO-LUMO gap:      4.81251360 eV.

  Total energy components:
  | Sum of eigenvalues            :        -168.28115001 Ha       -4579.16307707 eV
  | XC energy correction          :         -37.54745983 Ha       -1021.71836655 eV
  | XC potential correction       :          47.99172509 Ha        1305.92128413 eV
  | Free-atom electrostatic energy:        -142.73517709 Ha       -3884.02178537 eV
  | Hartree energy correction     :          -6.12950834 Ha        -166.79240828 eV
  | van der Waals energy corr.    :           0.00000000 Ha           0.00000000 eV
  | Entropy correction            :          -0.00010367 Ha          -0.00282095 eV
  | ---------------------------
  | Total energy                  :        -306.70157019 Ha       -8345.77435314 eV
  | Total energy, T -> 0          :        -306.70167386 Ha       -8345.77717409 eV  <-- do not rely on this value for anything but (periodic) metals
  | Electronic free energy        :        -306.70177752 Ha       -8345.77999503 eV

  Derived energy quantities:
  | Kinetic energy                :         306.04867804 Ha        8328.00825373 eV
  | Electrostatic energy          :        -575.20278839 Ha      -15652.06424032 eV
  | Energy correction for multipole
  | error in Hartree potential    :          -0.00250424 Ha          -0.06814383 eV
  | Sum of eigenvalues per atom                           :        -352.24331362 eV
  | Total energy (T->0) per atom                          :        -641.98285955 eV  <-- do not rely on this value for anything but (periodic) metals
  | Electronic free energy per atom                       :        -641.98307654 eV

  Self-consistency convergence accuracy:
  | Change of charge density      : 0.3055E-02
  | Change of sum of eigenvalues  : -.7804E+00 eV
  | Change of total energy        : 0.1642E-03 eV

  End self-consistency iteration #     8       :  max(cpu_time)    wall_clock(cpu1)
  | Time for this iteration                    :        1.351 s           1.351 s
  | Charge density update                      :        0.441 s           0.441 s
  | Density mixing                             :        0.012 s           0.012 s
  | Hartree multipole update                   :        0.004 s           0.004 s
  | Hartree multipole summation                :        0.242 s           0.242 s
  | Integration                                :        0.616 s           0.616 s
  | Solution of K.-S. eqns.                    :        0.036 s           0.036 s
  | Total energy evaluation                    :        0.000 s           0.000 s
------------------------------------------------------------

------------------------------------------------------------
          Begin self-consistency iteration #    9

  Date     :  20150727, Time     :  125117.295
------------------------------------------------------------
  Evaluating new KS density.
  Integration grid: deviation in total charge (<rho> - N_e) =  -3.320466E-09
  Pulay mixing of updated and previous charge densities.

  Evaluating partitioned Hartree potential by multipole expansion.
  | Analytical far-field extrapolation by fixed multipoles:
  | Hartree multipole sum: apparent total charge =  -0.815171E-05
  Summing up the Hartree potential.
  Time summed over all CPUs for potential: real work        1.917 s, elapsed        1.930 s
  | RMS charge density error from multipole expansion :   0.165855E-01

  Integrating Hamiltonian matrix: batch-based integration.
  Time summed over all CPUs for integration: real work        4.697 s, elapsed        4.904 s

  Updating Kohn-Sham eigenvalues, eigenvectors, occupation numbers, and Fermi level.
  Solving generalized eigenproblem
  Updating Kohn-Sham eigenvalues and eigenfunctions.
  Solving real generalised eigenvalue problem by standard LAPACK (fast)
  Determining occupation numbers for Kohn-Sham eigenstates.
  | Chemical potential (Fermi level) in eV                 : -.20735543E+01
  | Error in electron count due to remaining E_F inaccuracy: -.23042119E-08
  | Maximum occupation number of highest empty state:  0.00E+00

  Highest occupied state (VBM) at     -6.88401741 eV
  | Occupation number:      2.00000000

  Lowest unoccupied state (CBM) at    -2.07355426 eV
  | Occupation number:      1.00000000

  Overall HOMO-LUMO gap:      4.81046315 eV.

  Total energy components:
  | Sum of eigenvalues            :        -168.28174366 Ha       -4579.17923114 eV
  | XC energy correction          :         -37.54741810 Ha       -1021.71723103 eV
  | XC potential correction       :          47.99167356 Ha        1305.91988208 eV
  | Free-atom electrostatic energy:        -142.73517709 Ha       -3884.02178537 eV
  | Hartree energy correction     :          -6.12890397 Ha        -166.77596244 eV
  | van der Waals energy corr.    :           0.00000000 Ha           0.00000000 eV
  | Entropy correction            :          -0.00010367 Ha          -0.00282095 eV
  | ---------------------------
  | Total energy                  :        -306.70156926 Ha       -8345.77432789 eV
  | Total energy, T -> 0          :        -306.70167293 Ha       -8345.77714884 eV  <-- do not rely on this value for anything but (periodic) metals
  | Electronic free energy        :        -306.70177660 Ha       -8345.77996979 eV

  Derived energy quantities:
  | Kinetic energy                :         306.05286925 Ha        8328.12230254 eV
  | Electrostatic energy          :        -575.20702041 Ha      -15652.17939940 eV
  | Energy correction for multipole
  | error in Hartree potential    :          -0.00250123 Ha          -0.06806186 eV
  | Sum of eigenvalues per atom                           :        -352.24455624 eV
  | Total energy (T->0) per atom                          :        -641.98285760 eV  <-- do not rely on this value for anything but (periodic) metals
  | Electronic free energy per atom                       :        -641.98307460 eV

  Self-consistency convergence accuracy:
  | Change of charge density      : 0.7652E-03
  | Change of sum of eigenvalues  : -.1615E-01 eV
  | Change of total energy        : 0.2524E-04 eV

  End self-consistency iteration #     9       :  max(cpu_time)    wall_clock(cpu1)
  | Time for this iteration                    :        1.352 s           1.351 s
  | Charge density update                      :        0.442 s           0.442 s
  | Density mixing                             :        0.012 s           0.012 s
  | Hartree multipole update                   :        0.004 s           0.005 s
  | Hartree multipole summation                :        0.242 s           0.242 s
  | Integration                                :        0.614 s           0.614 s
  | Solution of K.-S. eqns.                    :        0.036 s           0.036 s
  | Total energy evaluation                    :        0.000 s           0.000 s
------------------------------------------------------------

------------------------------------------------------------
          Begin self-consistency iteration #   10

  Date     :  20150727, Time     :  125118.646
------------------------------------------------------------
  Evaluating new KS density.
  Integration grid: deviation in total charge (<rho> - N_e) =  -2.304233E-09
[...]
  | Electronic free energy        :        -306.70382384 Ha       -8345.83567813 eV

  Derived energy quantities:
  | Kinetic energy                :         306.05366536 Ha        8328.14396579 eV
  | Electrostatic energy          :        -575.20818819 Ha      -15652.21117636 eV
  | Energy correction for multipole
  | error in Hartree potential    :          -0.00250604 Ha          -0.06819288 eV
  | Sum of eigenvalues per atom                           :        -352.25188117 eV
  | Total energy (T->0) per atom                          :        -641.98714286 eV  <-- do not rely on this value for anything but (periodic) metals
  | Electronic free energy per atom                       :        -641.98735986 eV

  atomic forces [eV/Ang]:
  -----------------------
  atom #    1
   Hellmann-Feynman + Multipole  : -.234022E+01 -.810098E+01 -.700060E+01
   Pulay + GGA                   : 0.232280E+01 0.883038E+01 0.658351E+01
   Van der Waals               : 0.523127E-02 -.271351E-02 0.657684E-02
   ----------------------------------------------------------------
   Total forces(   1)            : -.121922E-01 0.726690E+00 -.410518E+00
  atom #    2
   Hellmann-Feynman + Multipole  : 0.608391E-01 -.344432E+00 0.100825E+00
   Pulay + GGA                   : -.262976E-01 0.616274E-01 -.330789E-01
   Van der Waals               : 0.170871E-02 0.290722E-02 0.375999E-02
   ----------------------------------------------------------------
   Total forces(   2)            : 0.362502E-01 -.279898E+00 0.715057E-01
  atom #    3
   Hellmann-Feynman + Multipole  : -.302399E+00 -.155984E+00 0.101270E+00
   Pulay + GGA                   : 0.151082E+00 0.140520E-01 -.135006E-01
   Van der Waals               : 0.280114E-02 -.565797E-02 0.394158E-03
   ----------------------------------------------------------------
   Total forces(   3)            : -.148516E+00 -.147590E+00 0.881633E-01
  atom #    4
   Hellmann-Feynman + Multipole  : 0.628670E-01 -.253912E-01 0.357178E-01
   Pulay + GGA                   : -.530951E-01 -.348007E-01 0.154856E+00
   Van der Waals               : 0.230770E-02 0.108455E-02 0.375963E-02
   ----------------------------------------------------------------
   Total forces(   4)            : 0.120797E-01 -.591074E-01 0.194334E+00
  atom #    5
   Hellmann-Feynman + Multipole  : -.645622E+01 -.709289E+01 0.912293E+01
   Pulay + GGA                   : 0.696762E+01 0.644019E+01 -.604197E+01
   Van der Waals               : -.150460E-02 0.720241E-02 0.402857E-02
   ----------------------------------------------------------------
   Total forces(   5)            : 0.509895E+00 -.645496E+00 0.308498E+01
  atom #    6
   Hellmann-Feynman + Multipole  : -.686723E-01 -.132146E+00 -.102697E+00
   Pulay + GGA                   : 0.565522E-01 0.125906E+00 0.362935E-01
   Van der Waals               : 0.528679E-04 0.717523E-02 0.242906E-03
   ----------------------------------------------------------------
   Total forces(   6)            : -.120672E-01 0.934731E-03 -.661605E-01
  atom #    7
   Hellmann-Feynman + Multipole  : -.318969E+00 0.416416E+00 -.278670E+01
   Pulay + GGA                   : -.296337E-01 0.230644E-01 -.136869E+00
   Van der Waals               : -.149989E-02 0.336546E-02 0.125010E-04
   ----------------------------------------------------------------
   Total forces(   7)            : -.350103E+00 0.442846E+00 -.292355E+01
  atom #    8
   Hellmann-Feynman + Multipole  : -.227640E+01 -.328981E+01 -.168102E+02
   Pulay + GGA                   : 0.301130E+01 0.359570E+01 0.150834E+02
   Van der Waals               : -.107762E-01 -.885361E-03 -.301589E-02
   ----------------------------------------------------------------
   Total forces(   8)            : 0.724125E+00 0.305010E+00 -.172983E+01
  atom #    9
   Hellmann-Feynman + Multipole  : -.428428E+00 -.246551E+00 0.358265E+00
   Pulay + GGA                   : 0.109539E+00 0.723563E-01 0.537688E-01
   Van der Waals               : -.343933E-02 -.115237E-02 -.132305E-02
   ----------------------------------------------------------------
   Total forces(   9)            : -.322329E+00 -.175347E+00 0.410710E+00
  atom #   10
   Hellmann-Feynman + Multipole  : -.404494E+00 -.814939E-01 0.117444E+01
   Pulay + GGA                   : -.766167E-01 -.544905E-01 0.925010E-01
   Van der Waals               : -.546450E-03 -.354783E-02 -.411218E-02
   ----------------------------------------------------------------
   Total forces(  10)            : -.481657E+00 -.139532E+00 0.126283E+01
  atom #   11
   Hellmann-Feynman + Multipole  : 0.122578E+01 -.159667E+02 0.187598E+01
   Pulay + GGA                   : 0.440209E-01 0.159732E+02 -.359115E+01
   Van der Waals               : 0.369864E-02 -.413982E-02 -.664307E-02
   ----------------------------------------------------------------
   Total forces(  11)            : 0.127350E+01 0.239331E-02 -.172182E+01
  atom #   12
   Hellmann-Feynman + Multipole  : -.269837E+00 0.597154E+00 0.221654E+00
   Pulay + GGA                   : -.811753E-01 0.950181E-01 0.901629E-01
   Van der Waals               : 0.177507E-02 -.138630E-02 -.162834E-02
   ----------------------------------------------------------------
   Total forces(  12)            : -.349237E+00 0.690786E+00 0.310189E+00
  atom #   13
   Hellmann-Feynman + Multipole  : -.924152E+00 -.792150E+00 0.154553E+01
   Pulay + GGA                   : 0.496759E-01 0.759903E-01 -.123900E+00
   Van der Waals               : 0.191079E-03 -.225172E-02 -.205206E-02
   ----------------------------------------------------------------
   Total forces(  13)            : -.874285E+00 -.718411E+00 0.141958E+01
  Timings for vdw_correction_hirshfeld (Tkatchenko-Scheffler 2009):
  | CPU time:        3.659 s, Wall clock time:        3.659 s.
  Removing unitary transformations (pure translations, rotations) from forces on atoms.
  Atomic forces before filtering:
  | Net force on center of mass :  0.546236E-02 0.327848E-02 -.957693E-02 eV/A
  | Net torque on center of mass:  0.237068E-02 0.594215E-03 -.196500E-02 eV
  Atomic forces after filtering:
  | Net force on center of mass :  0.356812E-15 0.000000E+00 -.178406E-15 eV/A
  | Net torque on center of mass:  -.188817E-15 0.755268E-15 -.566451E-15 eV
 
  Energy and forces in a compact form:
  | Total energy uncorrected      :         -0.834583003623572E+04 eV
  | Total energy corrected        :         -0.834583285718364E+04 eV  <-- do not rely on this value for anything but (periodic) metals
  | Electronic free energy        :         -0.834583567813155E+04 eV
  Total atomic forces (unitary forces cleaned) [eV/Ang]:
  |   1         -0.125431054761104E-01          0.726405918405546E+00         -0.409701629141523E+00
  |   2          0.358692682336442E-01         -0.280212574509356E+00          0.722911339490642E-01
  |   3         -0.148875350391638E+00         -0.147841215778821E+00          0.889682396643946E-01
  |   4          0.117346983562056E-01         -0.593678234102687E-01          0.195155433519645E+00
  |   5          0.509473711697656E+00         -0.645849319767051E+00          0.308572453161969E+01
  |   6         -0.125127833786245E-01          0.609322927243329E-03         -0.654466605884900E-01
  |   7         -0.350530005719341E+00          0.442456148452235E+00         -0.292281277511514E+01
  |   8          0.723689692312980E+00          0.304863316329495E+00         -0.172911522718966E+01
  |   9         -0.322780045924296E+00         -0.175458405184358E+00          0.411401571849186E+00
  |  10         -0.482081580652438E+00         -0.139672027544335E+00          0.126355549048696E+01
  |  11          0.127303803156997E+01          0.216292441023212E-02         -0.172112615593427E+01
  |  12         -0.349719240406054E+00          0.690557884751618E+00          0.310854219555026E+00
  |  13         -0.874763290221950E+00         -0.718654149082180E+00          0.142025182732511E+01
 
  ------------------------------------ 
  Start decomposition of the XC Energy 
  ------------------------------------ 
  Hartree-Fock part   :          0.000000000 Ha              0.000000000 eV
  ------------------------------------ 
  X Energy            :        -36.223985463 Ha           -985.704796565 eV
  C Energy GGA        :         -1.323061071 Ha            -36.002323509 eV
  Total XC Energy     :        -37.547046534 Ha          -1021.707120074 eV
  LDA X and C from self-consistent density 
  X Energy LDA        :        -32.632181341 Ha           -887.966833546 eV
  C Energy LDA        :         -2.676224254 Ha            -72.823767187 eV
  ------------------------------------ 
  End decomposition of the XC Energy 
  ------------------------------------ 
  Performing Hirshfeld analysis of fragment charges and moments.
  ----------------------------------------------------------------------
  | Atom     1: O
  |   Hirshfeld charge        :     -0.12792155
  |   Free atom volume        :     23.95238533
  |   Hirshfeld volume        :     23.12822337
  |   Hirshfeld dipole vector :     -0.00287243       0.03883343       0.01709708
  |   Hirshfeld dipole moment :      0.04252759
  |   Hirshfeld second moments:      0.05971899      -0.00460577      -0.00699779
  |                                 -0.00460577       0.00983276      -0.02534659
  |                                 -0.00699779      -0.02534659       0.03425933
  ----------------------------------------------------------------------
  | Atom     2: H
  |   Hirshfeld charge        :      0.10270686
  |   Free atom volume        :     10.44207651
  |   Hirshfeld volume        :     10.56360742
  |   Hirshfeld dipole vector :     -0.00724179       0.01440316       0.00095334
  |   Hirshfeld dipole moment :      0.01614941
  |   Hirshfeld second moments:      0.02625305       0.01101549       0.00598089
  |                                  0.01101549       0.01483350       0.00838237
  |                                  0.00598089       0.00838237       0.03890291
  ----------------------------------------------------------------------
  | Atom     3: H
  |   Hirshfeld charge        :      0.09375029
  |   Free atom volume        :     10.44207651
  |   Hirshfeld volume        :     13.13521790
  |   Hirshfeld dipole vector :      0.01084866       0.02392279       0.00317258
  |   Hirshfeld dipole moment :      0.02645862
  |   Hirshfeld second moments:     -0.02943870      -0.00396361      -0.00240086
  |                                 -0.00396361      -0.01025968       0.01145083
  |                                 -0.00240086       0.01145083      -0.01060104
  ----------------------------------------------------------------------
  | Atom     4: H
  |   Hirshfeld charge        :      0.08611285
  |   Free atom volume        :     10.44207651
  |   Hirshfeld volume        :     13.54557442
  |   Hirshfeld dipole vector :     -0.01334512       0.02206515       0.00329457
  |   Hirshfeld dipole moment :      0.02599649
  |   Hirshfeld second moments:     -0.00946638       0.00466266       0.00696844
  |                                  0.00466266      -0.01333620       0.01186137
  |                                  0.00696844       0.01186137      -0.05138211
  ----------------------------------------------------------------------
  | Atom     5: O
  |   Hirshfeld charge        :     -0.20830536
  |   Free atom volume        :     23.95238533
  |   Hirshfeld volume        :     22.51625101
  |   Hirshfeld dipole vector :      0.02906102       0.00136250      -0.01639502
  |   Hirshfeld dipole moment :      0.03339455
  |   Hirshfeld second moments:     -0.01148838       0.00297002       0.03767288
  |                                  0.00297002       0.05313325       0.00829460
  |                                  0.03767288       0.00829460       0.05801854
  ----------------------------------------------------------------------
  | Atom     6: H
  |   Hirshfeld charge        :      0.10977276
  |   Free atom volume        :     10.44207651
  |   Hirshfeld volume        :     10.69042667
  |   Hirshfeld dipole vector :      0.02019796       0.04319449       0.03700170
  |   Hirshfeld dipole moment :      0.06035601
  |   Hirshfeld second moments:      0.00202252      -0.01131169       0.01400591
  |                                 -0.01131169       0.03016464       0.00675664
  |                                  0.01400591       0.00675664       0.05885288
  ----------------------------------------------------------------------
  | Atom     7: H
  |   Hirshfeld charge        :      0.11053721
  |   Free atom volume        :     10.44207651
  |   Hirshfeld volume        :     11.47936738
  |   Hirshfeld dipole vector :     -0.01524050       0.00258941      -0.06388255
  |   Hirshfeld dipole moment :      0.06572638
  |   Hirshfeld second moments:      0.00837257       0.00464781       0.01772802
  |                                  0.00464781       0.03864890       0.00736005
  |                                  0.01772802       0.00736005       0.02274067
  ----------------------------------------------------------------------
  | Atom     8: O
  |   Hirshfeld charge        :     -0.32712679
  |   Free atom volume        :     23.95238533
  |   Hirshfeld volume        :     23.66312121
  |   Hirshfeld dipole vector :      0.01276350       0.02356651       0.07907421
  |   Hirshfeld dipole moment :      0.08349262
  |   Hirshfeld second moments:      0.02166004       0.06003856      -0.01676950
  |                                  0.06003856      -0.04938248      -0.00685642
  |                                 -0.01676950      -0.00685642      -0.03404220
  ----------------------------------------------------------------------
  | Atom     9: H
  |   Hirshfeld charge        :      0.12957624
  |   Free atom volume        :     10.44207651
  |   Hirshfeld volume        :      8.24341743
  |   Hirshfeld dipole vector :      0.09370898       0.06507311       0.03932221
  |   Hirshfeld dipole moment :      0.12067360
  |   Hirshfeld second moments:      0.09201571       0.01790382      -0.01399594
  |                                  0.01790382       0.06377414      -0.00979096
  |                                 -0.01399594      -0.00979096       0.08157302
  ----------------------------------------------------------------------
  | Atom    10: H
  |   Hirshfeld charge        :      0.10770501
  |   Free atom volume        :     10.44207651
  |   Hirshfeld volume        :      9.45524042
  |   Hirshfeld dipole vector :     -0.05207660      -0.01327179       0.07957318
  |   Hirshfeld dipole moment :      0.09602085
  |   Hirshfeld second moments:      0.06006008       0.01091739       0.01460755
  |                                  0.01091739       0.03072747       0.00442054
  |                                  0.01460755       0.00442054       0.06376328
  ----------------------------------------------------------------------
  | Atom    11: O
  |   Hirshfeld charge        :     -0.31197239
  |   Free atom volume        :     23.95238533
  |   Hirshfeld volume        :     23.33638393
  |   Hirshfeld dipole vector :     -0.00318864       0.06905473      -0.00197321
  |   Hirshfeld dipole moment :      0.06915647
  |   Hirshfeld second moments:     -0.02092224      -0.01861666      -0.06425494
  |                                 -0.01861666      -0.03268501       0.00331816
  |                                 -0.06425494       0.00331816       0.00975268
  ----------------------------------------------------------------------
  | Atom    12: H
  |   Hirshfeld charge        :      0.12758663
  |   Free atom volume        :     10.44207651
  |   Hirshfeld volume        :      7.55861821
  |   Hirshfeld dipole vector :     -0.06125341       0.08399896       0.06613835
  |   Hirshfeld dipole moment :      0.12321561
  |   Hirshfeld second moments:      0.08741686      -0.00016069      -0.02168371
  |                                 -0.00016069       0.08570587      -0.00686880
  |                                 -0.02168371      -0.00686880       0.09880857
  ----------------------------------------------------------------------
  | Atom    13: H
  |   Hirshfeld charge        :      0.10753444
  |   Free atom volume        :     10.44207651
  |   Hirshfeld volume        :      9.02811608
  |   Hirshfeld dipole vector :      0.04130282       0.04710879      -0.06041090
  |   Hirshfeld dipole moment :      0.08703240
  |   Hirshfeld second moments:      0.05079948      -0.01723291      -0.00779222
  |                                 -0.01723291       0.06711424       0.01532435
  |                                 -0.00779222       0.01532435       0.05519735
  ----------------------------------------------------------------------


------------------------------------------------------------------------------
  Final output of selected total energy values:

  The following output summarizes some interesting total energy values
  at the end of a run (AFTER all relaxation, molecular dynamics, etc.).

  | Total energy of the DFT / Hartree-Fock s.c.f. calculation      :          -8345.830036236 eV
  | Final zero-broadening corrected energy (caution - metals only) :          -8345.832857184 eV
  | For reference only, the value of 1 Hartree used in FHI-aims is :             27.211384500 eV

  Before relying on these values, please be sure to understand exactly which
  total energy value is referred to by a given number. Different objects may
  all carry the same name 'total energy'. Definitions:

  Total energy of the DFT / Hartree-Fock s.c.f. calculation:
  | Note that this energy does not include ANY quantities calculated after the
  | s.c.f. cycle, in particular not ANY RPA, MP2, etc. many-body perturbation terms.

  Final zero-broadening corrected energy:
  | For metallic systems only, a broadening of the occupation numbers at the Fermi
  | level can be extrapolated back to zero broadening by an electron-gas inspired
  | formula. For all systems that are not real metals, this value can be
  | meaningless and should be avoided.

------------------------------------------------------------------------------

------------------------------------------------------------
          Leaving FHI-aims.
          Date     :  20150727, Time     :  125129.583

          Computational steps:
          | Number of self-consistency cycles          :           15

          Detailed time accounting                     :  max(cpu_time)    wall_clock(cpu1)
          | Total time                                 :       25.064 s          25.099 s
          | Preparation time                           :        0.170 s           0.612 s
          | Grid partitioning                          :        0.128 s           0.128 s
          | Preloading free-atom quantities on grid    :        0.014 s           0.014 s
          | Free-atom superposition energy             :        0.051 s           0.051 s
          | Total time for integrations                :       10.184 s          10.184 s
          | Total time for solution of K.-S. equations :        0.672 s           0.675 s
          | Total time for density & force components  :        8.535 s           8.538 s
          | Total time for mixing                      :        0.159 s           0.161 s
          | Total time for Hartree multipole update    :        0.062 s           0.065 s
          | Total time for Hartree multipole sum       :        4.428 s           4.430 s
          | Total time for total energy evaluation     :        0.005 s           0.005 s
          | Total time for scaled ZORA corrections     :        0.000 s           0.000 s
          | Total time for TS (2009) vdW correction    :        0.039 s           0.040 s

          Have a nice day.
------------------------------------------------------------
