  MPI-parallelism will be employed.
------------------------------------------------------------
          Invoking FHI-aims ...
          Version 081213
          Compiled on 2013/08/29 at 17:41:06 on host generoso.

          When using FHI-aims, please cite the following reference:

          Volker Blum, Ralf Gehrke, Felix Hanke, Paula Havu,
          Ville Havu, Xinguo Ren, Karsten Reuter, and Matthias Scheffler,
          'Ab Initio Molecular Simulations with Numeric Atom-Centered Orbitals: FHI-aims',
          Computer Physics Communications 180, 2175-2196 (2009)

          For any questions about FHI-aims, please visit the aimsclub website
          with its forums and wiki. Contributions to both the forums and the
          wiki are warmly encouraged - they are for you, and everyone is welcome there.

------------------------------------------------------------

  Date     :  20150727, Time     :  123041.118
  Time zero on CPU 1             :   0.449920000000000E-01  s.
  Internal wall clock time zero  :           207232241.118  s.

  Using        8 parallel tasks.
  Task        0 on host gen59 reporting.
  Task        1 on host gen59 reporting.
  Task        2 on host gen59 reporting.
  Task        3 on host gen59 reporting.
  Task        4 on host gen59 reporting.
  Task        5 on host gen59 reporting.
  Task        6 on host gen59 reporting.
  Task        7 on host gen59 reporting.

  Performing system and environment tests:
  | Environment variable OMP_NUM_THREADS correctly set to 1.
  | Checking for scalapack...
  | No scalapack compiled in.

  Obtaining array dimensions for all initial allocations:
  
  -----------------------------------------------------------------------
  Parsing control.in (first pass over file, find array dimensions only).
  The contents of control.in will be repeated verbatim below
  unless switched off by setting 'verbatim_writeout .false.' .
  in the first line of control.in .
  -----------------------------------------------------------------------
  
  #########################################################################################
  #
  #  Volker Blum, FHI 2008 : Test run input file control.in
  #
  #########################################################################################
  #
  #  Physical model
  #
    xc                 rpbe
    spin               none
    relativistic       atomic_zora scalar
    charge             0.
   vdw_correction_hirshfeld
  #
  #  SCF convergence
  #
    occupation_type    gaussian 0.01
    mixer              pulay
      n_max_pulay        10
      charge_mix_param   0.1
    sc_accuracy_rho    5E-5
    sc_accuracy_eev    5E-3
    sc_accuracy_etot   5E-6
    sc_iter_limit      3000
  #
  #  Eigenvalue solver
  #
    KS_method          lapack
      empty_states       8
      basis_threshold    0.e-5
  #
  #  Efficiency
  #
  #   all previous settings are now default, except stratmann still
  #   undecided. Continue to handle stratmann with care, if at all.
  #
  #  partition_type stratmann
    partition_type rho_r2
  #  hartree_partition_type stratmann
  #
  #  Oprions for large clusters (100's of atoms: memory saving / better scaling)
  #
  # for periodic systems:
  #
    density_update_method orbital
    packed_matrix_format none
  #  k_grid 6 6 6
  #  output k_eigenvalue 1
  #  distributed_spline_storage .true.
  #
  #  Relaxation
  #
  #  relax_geometry   bfgs 5.e-3
    sc_accuracy_forces 5.E-4
    final_forces_cleaned .true.
  #
  #  Output options
  #
  #  output mulliken
    output Hirshfeld
  #  output dipole
  
  #harmonic_length_scale 0.001
  
  ################################################################################
  #
  #  FHI-aims code project
  #  VB, Fritz-Haber Institut, 2007
  #
  #  Suggested "safe" defaults for H atom (to be pasted into control.in file)
  #  Basis constructed for a non-relativistic H2 molecule using the
  #  PW-LDA functional.
  #
  ################################################################################
    species        H
  #     global species definitions
      nucleus             1
      cut_pot             4.0  2.0  1.0
      cut_free_atom       finite 8.0
      logarithmic         0.00010000 100.00  1.0123
      basis_dep_cutoff    1d-4  # 1d-4 is safe default - please check 5d-4 if you wish!
      radial_base         24 7.0
      radial_multiplier   2
      angular_grids       specified
        division   0.2783  110
        division   0.3822  194
        division   0.5626  302
  #      division   0.5922  434
  #      division   0.6227  590
  #      division   0.7206  770
        outer_grid  302
      l_hartree           4
  ################################################################################
  #
  #  Definition of "minimal" basis
  #
  ################################################################################
  #     valence basis states
      valence      1  s   1.
  #     ion occupancy
      ion_occ      1  s   0.5
  ################################################################################
  #
  #  Suggested additional basis functions. For production calculations,
  #  uncomment them one after another (the most important basis functions are
  #  listed first).
  #
  ################################################################################
  #  "First tier" - improvements: -1014.90 meV to -62.69 meV
       hydro 2 s 2.1
       hydro 2 p 3.5
  #  "Second tier" - improvements: -12.89 meV to -1.83 meV
       hydro 1 s 0.85
       hydro 2 p 3.7
       hydro 2 s 1.2
       hydro 3 d 7
  #  "Third tier" - improvements: -0.25 meV to -0.12 meV
  #     hydro 4 f 11.2
  #     hydro 3 p 4.8
  #     hydro 4 d 9
  #     hydro 3 s 3.2
  
  ################################################################################
  #
  #  FHI-aims code project
  #  VB, Fritz-Haber Institut, 2007
  #
  #  Suggested "safe" defaults for O atom (to be pasted into control.in file)
  #  All values have been tested for a non-relativistic, non-spinpolarized O2
  #  molecule using the PW-LDA functional. Validity for PBE is expected.
  #
  #  Constructed for dimers: 1.0 A, 1.208 A, 1.5 A, 2.0 A, 3.0 A
  #
  ################################################################################
    species        O
  #     global species definitions
      nucleus             8
      mass                15.9994
      l_hartree           4
      cut_pot             4.0  2.0  1.0
      cut_free_atom       finite 8.0
      basis_dep_cutoff    1d-4  # 1d-4 is safe default - please check 5d-4 if you wish!
      logarithmic         0.00010000 100.00  1.0123
      radial_base         36 7.0
      radial_multiplier   2
       angular_grids specified
        division   0.4087  110
        division   0.5181  194
        division   0.6184  302
  #      division   0.7315  434
  #      division   0.7934  590
  #      division   0.9656  770
  #      division   1.4041  974
  #      outer_grid 974
        outer_grid 302
  ################################################################################
  #
  #  Definition of "minimal" basis
  #
  ################################################################################
  #     valence basis states
      valence      2  s   2.
      valence      2  p   4.
  #     ion occupancy
      ion_occ      2  s   1.
      ion_occ      2  p   3.
  ################################################################################
  #
  #  Suggested additional basis functions. For production calculations,
  #  uncomment them one after another (the most important basis functions are
  #  listed first).
  #
  ################################################################################
  #  "First tier" - improvements: -699.05 meV to -159.38 meV
       hydro 2 p 1.8
       hydro 3 d 7.6
       hydro 3 s 6.4
  #  "Second tier" - improvements: -49.91 meV to -5.39 meV
       hydro 4 f 11.6
       hydro 3 p 6.2
       hydro 3 d 5.6
       hydro 5 g 17.6
       hydro 1 s 0.75
  #  "Third tier" - improvements: -2.83 meV to -0.50 meV
  #     ionic 2 p auto
  #     hydro 4 f 10.8
  #     hydro 4 d 4.7
  #     hydro 2 s 6.8
  #  "Fourth tier" - improvements: -0.40 meV to -0.12 meV
  #     hydro 3 p 5
  #     hydro 3 s 3.3
  #     hydro 5 g 15.6
  #     hydro 4 f 17.6
  #     hydro 4 d 14
  # Further basis functions - -0.08 meV and below
  #     hydro 3 s 2.1
  #     hydro 4 d 11.6
  #     hydro 3 p 16
  #     hydro 2 s 17.2
  
  
  -----------------------------------------------------------------------
  Completed first pass over input file control.in .
  -----------------------------------------------------------------------
  
  
  -----------------------------------------------------------------------
  Parsing geometry.in (first pass over file, find array dimensions only).
  The contents of geometry.in will be repeated verbatim below
  unless switched off by setting 'verbatim_writeout .false.' .
  in the first line of geometry.in .
  -----------------------------------------------------------------------
  
  atom      -4.053030000      0.065001000     -1.525160000  O
  atom      -4.566710000      0.974813000     -1.912820000  H
  atom      -3.067820000      0.330172000     -1.477310000  H
  atom      -4.370360000     -0.049164000     -0.572274000  H
  atom      -4.581760000     -0.256435000      0.939478000  O
  atom      -4.349860000      0.471090000      1.504340000  H
  atom      -5.393870000     -0.726611000      1.228070000  H
  atom      -1.975360000      2.858040000      0.453140000  O
  atom      -1.223550000      3.375850000      0.786238000  H
  atom      -2.537520000      2.567960000      1.156120000  H
  atom      -5.628340000      3.730740000      1.385610000  O
  atom      -6.090650000      4.418470000      1.860350000  H
  atom      -5.158540000      4.200260000      0.615875000  H
  
  -----------------------------------------------------------------------
  Completed first pass over input file geometry.in .
  -----------------------------------------------------------------------
  
 
  Basic array size parameters: 
  | Number of species                 :        2
  | Number of atoms                   :       13
  | Max. basis fn. angular momentum   :        4
  | Max. atomic/ionic basis occupied n:        2
  | Max. number of basis fn. types    :        2
  | Max. radial fns per species/type  :        8
  | Max. logarithmic grid size        :     1301
  | Max. radial integration grid size :       73
  | Max. angular integration grid size:      302
  | Max. angular grid division number :        8
  | Radial grid for Hartree potential :     1301
  | Number of spin channels           :        1

------------------------------------------------------------
          Reading file control.in.
------------------------------------------------------------
  XC: Using RPBE gradient-corrected functionals.
  Spin treatment: No spin polarisation.
  Scalar relativistic treatment of kinetic energy: on-site free-atom approximation to ZORA.
  Charge =   0.000000E+00: Neutral system requested explicitly.
  Using non-empirical van der Waals correction (Hirshfeld partitioning):
  Occupation type: Gaussian broadening, width =   0.100000E-01 eV.
  Using pulay charge density mixing.
  Pulay mixing - number of memorized iterations:   10
  Charge density mixing - mixing parameter:     0.1000
  Convergence accuracy of self-consistent charge density: 0.5000E-04
  Convergence accuracy of sum of eigenvalues: 0.5000E-02
  Convergence accuracy of total energy: 0.5000E-05
  Maximum number of s.-c. iterations  :  3000
  Kohn-Sham eigenvalues and eigenfunctions calculated by lapack diagonalisation (D&C).
  Number of empty states per atom:        8
  Threshold for basis singularities: 0.0000E+00
  Partition function in integrals calculations: rho / r^2
 Using packed matrix format           0
  Convergence accuracy of forces: 0.5000E-03
  Cleaning forces before final output.
  Hirshfeld charge analysis will be performed.
 
  Reading configuration options for species H                   .
  | Found nuclear charge :   1.0000
  | Found cutoff potl. onset [A], width [A], scale factor :    4.00000    2.00000    1.00000
  | Found cutoff specification for free atom: Cutoff potential begins at    8.00000 A.
  | Found logarithmic grid data [bohr] : 0.1000E-03 0.1000E+03 0.1012E+01
  | Threshold for basis-dependent cutoff potential is   0.100000E-03
  | Found data for basic radial integration grid :    24 points, outermost radius =    7.000 A
  | Found multiplier for basic radial grid :   2
  | Found angular grid specification: user-specified.
  | Specified grid contains     4 separate shells.
  | Check grid settings after all constraints further below.
  | Found l_max for Hartree potential  :   4
  | Found free-atom valence shell :  1 s   1.000
  | No ionic wave fns used. Skipping ion_occ.
  | Found hydrogenic basis function :  2 s   2.100
  | Found hydrogenic basis function :  2 p   3.500
  | Found hydrogenic basis function :  1 s   0.850
  | Found hydrogenic basis function :  2 p   3.700
  | Found hydrogenic basis function :  2 s   1.200
  | Found hydrogenic basis function :  3 d   7.000
  Species H                   : Missing cutoff potential type.
  Defaulting to exp(1/x)/(1-x)^2 type cutoff potential.
  Species H : On-site basis accuracy parameter (for Gram-Schmidt orthonormalisation) not specified.
  Using default value basis_acc =  0.1000000E-03.
  Species H                   : Using default innermost maximum threshold i_radial=  2 for radial functions.
  Species H                   : Basic radial grid will be enhanced according to radial_multiplier =   2, to contain    49 grid points.
 
  Reading configuration options for species O                   .
  | Found nuclear charge :   8.0000
  | Found atomic mass :    15.9994000000000      amu
  | Found l_max for Hartree potential  :   4
  | Found cutoff potl. onset [A], width [A], scale factor :    4.00000    2.00000    1.00000
  | Found cutoff specification for free atom: Cutoff potential begins at    8.00000 A.
  | Threshold for basis-dependent cutoff potential is   0.100000E-03
  | Found logarithmic grid data [bohr] : 0.1000E-03 0.1000E+03 0.1012E+01
  | Found data for basic radial integration grid :    36 points, outermost radius =    7.000 A
  | Found multiplier for basic radial grid :   2
  | Found angular grid specification: user-specified.
  | Specified grid contains     4 separate shells.
  | Check grid settings after all constraints further below.
  | Found free-atom valence shell :  2 s   2.000
  | Found free-atom valence shell :  2 p   4.000
  | No ionic wave fns used. Skipping ion_occ.
  | No ionic wave fns used. Skipping ion_occ.
  | Found hydrogenic basis function :  2 p   1.800
  | Found hydrogenic basis function :  3 d   7.600
  | Found hydrogenic basis function :  3 s   6.400
  | Found hydrogenic basis function :  4 f  11.600
  | Found hydrogenic basis function :  3 p   6.200
  | Found hydrogenic basis function :  3 d   5.600
  | Found hydrogenic basis function :  5 g  17.600
  | Found hydrogenic basis function :  1 s   0.750
  Species O                   : Missing cutoff potential type.
  Defaulting to exp(1/x)/(1-x)^2 type cutoff potential.
  Species O : On-site basis accuracy parameter (for Gram-Schmidt orthonormalisation) not specified.
  Using default value basis_acc =  0.1000000E-03.
  Species O                   : Using default innermost maximum threshold i_radial=  2 for radial functions.
  Species O                   : Basic radial grid will be enhanced according to radial_multiplier =   2, to contain    73 grid points.
 
  Finished reading input file 'control.in'. Consistency checks are next.
 
  Target number of points in a grid batch is not set. Defaulting to  100
  Method for grid partitioning is not set. Defaulting to parallel hash+maxmin partitioning.
  Batch size limit is not set. Defaulting to    200
  By default, will store active basis functions for each batch.
  If in need of memory, prune_basis_once .false. can be used to disable this option.
  communication_type for Hartree potential was not specified.
  Defaulting to calc_hartree .
  Pulay mixer: Number of initial linear mixing iterations not set.
  Defaulting to    0 iterations.
  Work space size for distributed Hartree potential not set.
  Defaulting to   0.200000E+03 MB.
  Algorithm-dependent basis array size parameters:
  | n_max_pulay                         :       10
  Geometry relaxation not requested: no relaxation will be performed.
  Handling of forces: Unphysical translation and rotation will be removed from forces.
  No accuracy limit for integral partition fn. given. Defaulting to 0.1000E-14.
  No threshold value for u(r) in integrations given. Defaulting to 0.1000E-05.
  No accuracy for occupation numbers given. Defaulting to 0.1000E-07.
  No threshold value for occupation numbers given. Defaulting to 0.0000E+00.
  No accuracy for fermi level given. Defaulting to 0.1000E-19.
  Maximum # of iterations to find E_F not set. Defaulting to  200.
  Will not use alltoall communication since running on < 1024 CPUs.
  Partitioning for Hartree potential was not defined. Using partition_type for integrals.
  | Reporting present value of keyword multip_moments_threshold  :       0.10000000E-09
  | This value may affect high angular momentum components of the Hartree potential in periodic systems.
  No q(lm)/r^(l+1) cutoff set for long-range Hartree potential.
  | Using default value of  0.100000E-09 .
  | Verify using the multipole_threshold keyword.
  Defaulting to new monopole extrapolation.
  Density update method: Loop over occupied states selected for charge density update.
------------------------------------------------------------


------------------------------------------------------------
          Reading geometry description geometry.in.
------------------------------------------------------------
  Input structure read successfully.
  The structure contains       13 atoms,  and a total of         41.000 electrons.

  Input geometry:
  | No unit cell requested.
  | Atomic structure:
  |       Atom                x [A]            y [A]            z [A]
  |    1: Species O             -4.053030         0.065001        -1.525160
  |    2: Species H             -4.566710         0.974813        -1.912820
  |    3: Species H             -3.067820         0.330172        -1.477310
  |    4: Species H             -4.370360        -0.049164        -0.572274
  |    5: Species O             -4.581760        -0.256435         0.939478
  |    6: Species H             -4.349860         0.471090         1.504340
  |    7: Species H             -5.393870        -0.726611         1.228070
  |    8: Species O             -1.975360         2.858040         0.453140
  |    9: Species H             -1.223550         3.375850         0.786238
  |   10: Species H             -2.537520         2.567960         1.156120
  |   11: Species O             -5.628340         3.730740         1.385610
  |   12: Species H             -6.090650         4.418470         1.860350
  |   13: Species H             -5.158540         4.200260         0.615875
  |

  | The smallest distance between any two atoms is         0.94570141 AA.
  |
  | The first atom of this pair is atom number                      8 .
  | The second atom of this pair is atom number                    10 .

  Structure-dependent array size parameters: 
  | Maximum number of distinct radial functions  :       18
  | Maximum number of basis functions            :      291
  | Number of Kohn-Sham states (occupied + empty):       73
------------------------------------------------------------

------------------------------------------------------------
          Preparing all fixed parts of the calculation.
------------------------------------------------------------
  Determining machine precision:
    2.225073858507201E-308
  Setting up grids for atomic and cluster calculations.

  Creating wave function, potential, and density for free atoms.

  Species: H

  List of occupied orbitals and eigenvalues:
    n    l              occ      energy [Ha]    energy [eV]
    1    0           1.0000        -0.241408        -6.5691


  Species: O

  List of occupied orbitals and eigenvalues:
    n    l              occ      energy [Ha]    energy [eV]
    1    0           2.0000       -18.944147      -515.4965
    2    0           2.0000        -0.883529       -24.0421
    2    1           4.0000        -0.330176        -8.9845

  Creating fixed part of basis set: Ionic, confined, hydrogenic.
 
  H                    hydrogenic:
 
  List of hydrogenic basis orbitals: 
    n    l      effective z      eigenvalue [eV]  inner max. [A]     outer max. [A]     outer radius [A]   
    2    0         2.100000       -14.9965           0.193241           1.317192           5.372934
    2    1         3.500000       -41.6672           0.602363           0.602363           4.056010
    1    0         0.850000        -9.8292           0.624864           0.624864           5.372934
    2    1         3.700000       -46.5653           0.573616           0.573616           3.909951
    2    0         1.200000        -4.5995           0.334977           2.228160           5.505921
    3    2         7.000000       -74.0753           0.680692           0.680692           3.769152
 
 
  O                    hydrogenic:
 
  List of hydrogenic basis orbitals: 
    n    l      effective z      eigenvalue [eV]  inner max. [A]     outer max. [A]     outer radius [A]   
    2    1         1.800000       -11.0118           1.178546           1.178546           5.432516
    3    2         7.600000       -87.3182           0.624117           0.624117           3.541422
    3    0         6.400000       -61.9209           0.061166           1.081887           4.306510
    4    3        11.600000      -114.4238           0.731621           0.731621           3.584982
    3    1         6.200000       -58.1113           0.255677           1.030255           4.306510
    3    2         5.600000       -47.4081           0.847222           0.847222           4.413102
    5    4        17.600000      -168.5799           0.749730           0.749730           3.372413
    1    0         0.750000        -7.6499           0.705275           0.705275           5.366508
 

  Adding cutoff potential to free-atom effective potential.
  Creating atomic-like basis functions for current effective potential.

  Species H                   :

  List of atomic basis orbitals and eigenvalues:
    n    l      energy [Ha]    energy [eV]    outer radius [A]
    1    0        -0.241374        -6.5681       5.372934


  Species O                   :

  List of atomic basis orbitals and eigenvalues:
    n    l      energy [Ha]    energy [eV]    outer radius [A]
    1    0       -18.944147      -515.4965       1.415745
    2    0        -0.883529       -24.0421       5.048305
    2    1        -0.330173        -8.9845       5.301302

  Assembling full basis from fixed parts.
  | Species H :   atomic orbital   1 s accepted.
  | Species H :    hydro orbital   2 s accepted.
  | Species H :    hydro orbital   1 s accepted.
  | Species H :    hydro orbital   2 s accepted.
  | Species H :    hydro orbital   2 p accepted.
  | Species H :    hydro orbital   2 p accepted.
  | Species H :    hydro orbital   3 d accepted.
  | Species O :   atomic orbital   1 s accepted.
  | Species O :    hydro orbital   3 s accepted.
  | Species O :   atomic orbital   2 s accepted.
  | Species O :    hydro orbital   1 s accepted.
  | Species O :    hydro orbital   3 p accepted.
  | Species O :   atomic orbital   2 p accepted.
  | Species O :    hydro orbital   2 p accepted.
  | Species O :    hydro orbital   3 d accepted.
  | Species O :    hydro orbital   3 d accepted.
  | Species O :    hydro orbital   4 f accepted.
  | Species O :    hydro orbital   5 g accepted.
 
  Basis size parameters after reduction:
  | Total number of radial functions:       18
  | Total number of basis functions :      291
 
  Testing on-site integration grid accuracy.
  |  Species  Function  <phi|h_atom|phi> (log., in eV)  <phi|h_atom|phi> (rad., in eV)
           1        1                 -6.5683835025                 -6.5684759159
           1        2                 13.3711789951                 13.3708738703
           1        3                 23.6590910787                 23.6532055418
           1        4                 16.2963827186                 16.1870710655 ***
           1        5                 28.7627214838                 28.7627215090
           1        6                 59.5965249172                 59.5965950857
           1        7                 60.2220506392                 60.2220503827
           2        8               -515.4964576505               -515.4964530710
           2        9                 15.3030791347                 15.3030722972
           2       10                -21.7296094581                -21.7296135470
           2       11                 14.2969371730                 14.2969701621
           2       12                 21.0679693190                 21.0679697493
           2       13                 -2.3833606469                 -2.3833613176
           2       14                 13.7067136422                 13.7066766629
           2       15                 45.8013116808                 45.8013116965
           2       16                 52.2309815402                 52.2309831494
           2       17                 85.4120732416                 85.4120732763
           2       18                142.1019167745                142.1019167817
 * Note: Onsite integrals marked "***" above are less accurate than
 * onsite_accuracy_threshold =    0.03000 eV. Usually, this is harmless.
 * When in doubt, tighten the "radial" and/or "radial_multiplier" flags to check.

  Preparing densities etc. for the partition functions (integrals / Hartree potential).

  Preparations completed.
  max(cpu_time)          :      0.171 s.
  Wall clock time (cpu1) :      0.666 s.
------------------------------------------------------------

------------------------------------------------------------
          Begin self-consistency loop: Initialization.

          Date     :  20150727, Time     :  123041.825
------------------------------------------------------------

  Initializing index lists of integration centers etc. from given atomic structure:
  | Number of centers in hartree potential         :        13
  | Number of centers in hartree multipole         :        13
  | Number of centers in electron density summation:        13
  | Number of centers in basis integrals           :        13
  | Number of centers in integrals                 :        13
  Partitioning the integration grid into batches with parallel hashing+maxmin method.
  | Number of batches:     1712
  | Maximal batch size:     149
  | Minimal batch size:      54
  | Average batch size:      98.693
  | Standard deviation of batch sizes:      30.758

  Integration load balanced across     8 MPI tasks.
  Work distribution over tasks is as follows:
  Task     0 has      21060 integration points.
  Task     1 has      21175 integration points.
  Task     2 has      21135 integration points.
  Task     3 has      21121 integration points.
  Task     4 has      21108 integration points.
  Task     5 has      21136 integration points.
  Task     6 has      21108 integration points.
  Task     7 has      21119 integration points.
  Initializing partition tables, free-atom densities, potentials, etc. across the integration grid (initialize_grid_storage).
  | Net number of integration points:   168962
  | of which are non-zero points    :   168415
  Obtaining max. number of non-zero basis functions in each batch (get_n_compute_maxes).
  | Maximal number of non-zero basis functions:      288 in task     0
  | Maximal number of non-zero basis functions:      288 in task     1
  | Maximal number of non-zero basis functions:      288 in task     2
  | Maximal number of non-zero basis functions:      288 in task     3
  | Maximal number of non-zero basis functions:      288 in task     4
  | Maximal number of non-zero basis functions:      289 in task     5
  | Maximal number of non-zero basis functions:      288 in task     6
  | Maximal number of non-zero basis functions:      288 in task     7
  Integrating Hamiltonian matrix: batch-based integration.
  Time summed over all CPUs for integration: real work        4.806 s, elapsed        4.948 s
  Integrating overlap matrix.
  Time summed over all CPUs for integration: real work        2.514 s, elapsed        2.578 s

  Updating Kohn-Sham eigenvalues, eigenvectors, occupation numbers, and Fermi level.
  Solving generalized eigenproblem
  Updating Kohn-Sham eigenvalues and eigenfunctions.
  Transforming overlap matrix and checking for singularities.
  Overlap matrix is nonsingular:
  | Lowest eigenvalue:  0.281374E-03
  Solving real generalised eigenvalue problem by standard LAPACK (fast)
  Determining occupation numbers for Kohn-Sham eigenstates.
  | Chemical potential (Fermi level) in eV                 : -.29220363E+01
  | Error in electron count due to remaining E_F inaccuracy: 0.00000000E+00
  | Maximum occupation number of highest empty state:  0.00E+00

  Writing Kohn-Sham eigenvalues.

  State    Occupation    Eigenvalue [Ha]    Eigenvalue [eV]
      1       2.00000         -19.064909         -518.78256
      2       2.00000         -19.059141         -518.62563
      3       2.00000         -19.054473         -518.49860
      4       2.00000         -19.044522         -518.22780
      5       2.00000          -1.124567          -30.60103
      6       2.00000          -1.103458          -30.02663
      7       2.00000          -1.103362          -30.02400
      8       2.00000          -1.089114          -29.63630
      9       2.00000          -0.651426          -17.72619
     10       2.00000          -0.646452          -17.59084
     11       2.00000          -0.639679          -17.40654
     12       2.00000          -0.618274          -16.82409
     13       2.00000          -0.602227          -16.38744
     14       2.00000          -0.515284          -14.02159
     15       2.00000          -0.501670          -13.65115
     16       2.00000          -0.501100          -13.63562
     17       2.00000          -0.484573          -13.18589
     18       2.00000          -0.446137          -12.14001
     19       2.00000          -0.438101          -11.92135
     20       2.00000          -0.430132          -11.70447
     21       1.00000          -0.107383           -2.92204
     22       0.00000          -0.076132           -2.07165
     23       0.00000          -0.062196           -1.69243
     24       0.00000          -0.052968           -1.44132
     25       0.00000          -0.027437           -0.74660
     26       0.00000          -0.012647           -0.34413
     27       0.00000          -0.003194           -0.08691
     28       0.00000           0.043456            1.18249
     29       0.00000           0.049238            1.33982
     30       0.00000           0.060114            1.63578
     31       0.00000           0.067208            1.82881
     32       0.00000           0.086652            2.35792
     33       0.00000           0.099892            2.71820
     34       0.00000           0.102809            2.79757
     35       0.00000           0.106496            2.89790
     36       0.00000           0.116791            3.17805
     37       0.00000           0.117502            3.19741
     38       0.00000           0.130665            3.55557
     39       0.00000           0.139310            3.79081
     40       0.00000           0.140941            3.83520
     41       0.00000           0.147255            4.00702
     42       0.00000           0.171076            4.65521
     43       0.00000           0.181144            4.92918
     44       0.00000           0.203771            5.54489
     45       0.00000           0.215185            5.85549
     46       0.00000           0.241303            6.56619
     47       0.00000           0.248239            6.75491
     48       0.00000           0.269382            7.33026
     49       0.00000           0.280025            7.61987
     50       0.00000           0.293985            7.99974
     51       0.00000           0.326101            8.87367
     52       0.00000           0.337471            9.18305
     53       0.00000           0.345993            9.41495
     54       0.00000           0.364948            9.93075
     55       0.00000           0.381368           10.37754
     56       0.00000           0.385011           10.47668
     57       0.00000           0.402771           10.95996
     58       0.00000           0.413299           11.24644
     59       0.00000           0.425152           11.56897
     60       0.00000           0.437748           11.91173
     61       0.00000           0.449576           12.23359
     62       0.00000           0.457313           12.44411
     63       0.00000           0.470483           12.80249
     64       0.00000           0.484395           13.18105
     65       0.00000           0.505932           13.76712
     66       0.00000           0.527462           14.35296
     67       0.00000           0.551032           14.99434
     68       0.00000           0.564296           15.35526
     69       0.00000           0.572629           15.58204
     70       0.00000           0.632882           17.22161
     71       0.00000           0.677009           18.42234
     72       0.00000           0.692614           18.84698
     73       0.00000           0.737251           20.06161

  Highest occupied state (VBM) at     -2.92203633 eV
  | Occupation number:      1.00000000

  Lowest unoccupied state (CBM) at    -2.92203633 eV
  | Occupation number:      1.00000000

  Overall HOMO-LUMO gap:      0.00000000 eV.
  Calculating total energy contributions from superposition of free atom densities.

  Total energy components:
  | Sum of eigenvalues            :        -174.34458220 Ha       -4744.15746166 eV
  | XC energy correction          :         -36.79462044 Ha       -1001.23256422 eV
  | XC potential correction       :          47.01743882 Ha        1279.40960606 eV
  | Free-atom electrostatic energy:        -142.80688246 Ha       -3885.97298779 eV
  | Hartree energy correction     :           0.00000000 Ha           0.00000000 eV
  | van der Waals energy corr.    :           0.00000000 Ha           0.00000000 eV
  | Entropy correction            :          -0.00010367 Ha          -0.00282095 eV
  | ---------------------------
  | Total energy                  :        -306.92864627 Ha       -8351.95340761 eV
  | Total energy, T -> 0          :        -306.92874993 Ha       -8351.95622856 eV  <-- do not rely on this value for anything but (periodic) metals
  | Electronic free energy        :        -306.92885360 Ha       -8351.95904951 eV

  Derived energy quantities:
  | Kinetic energy                :         303.94937777 Ha        8270.88338696 eV
  | Electrostatic energy          :        -574.08340360 Ha      -15621.60423036 eV
  | Energy correction for multipole
  | error in Hartree potential    :           0.00000000 Ha           0.00000000 eV
  | Sum of eigenvalues per atom                           :        -364.93518936 eV
  | Total energy (T->0) per atom                          :        -642.45817143 eV  <-- do not rely on this value for anything but (periodic) metals
  | Electronic free energy per atom                       :        -642.45838842 eV
  Initialize hartree_potential_storage
  Max. number of atoms included in rho_multipole:           13

  End scf initialization - timings             :  max(cpu_time)    wall_clock(cpu1)
  | Time for scf. initialization               :        1.366 s           1.365 s
  | Boundary condition initialization          :        0.000 s           0.000 s
  | Integration                                :        0.943 s           0.944 s
  | Solution of K.-S. eqns.                    :        0.136 s           0.135 s
  | Grid partitioning                          :        0.119 s           0.120 s
  | Preloading free-atom quantities on grid    :        0.014 s           0.013 s
  | Free-atom superposition energy             :        0.051 s           0.052 s
  | Total energy evaluation                    :        0.001 s           0.000 s
------------------------------------------------------------

------------------------------------------------------------
          Begin self-consistency iteration #    1

  Date     :  20150727, Time     :  123043.190
------------------------------------------------------------
  Evaluating new KS density.
  Integration grid: deviation in total charge (<rho> - N_e) =   2.131628E-14
  Pulay mixing of updated and previous charge densities.

  Evaluating partitioned Hartree potential by multipole expansion.
  | Analytical far-field extrapolation by fixed multipoles:
  | Hartree multipole sum: apparent total charge =  -0.464136E-06
  Summing up the Hartree potential.
  Time summed over all CPUs for potential: real work        1.918 s, elapsed        1.925 s
  | RMS charge density error from multipole expansion :   0.152650E-02

  Integrating Hamiltonian matrix: batch-based integration.
  Time summed over all CPUs for integration: real work        4.801 s, elapsed        4.944 s

  Updating Kohn-Sham eigenvalues, eigenvectors, occupation numbers, and Fermi level.
  Solving generalized eigenproblem
  Updating Kohn-Sham eigenvalues and eigenfunctions.
  Solving real generalised eigenvalue problem by standard LAPACK (fast)
  Determining occupation numbers for Kohn-Sham eigenstates.
  | Chemical potential (Fermi level) in eV                 : -.27321025E+01
  | Error in electron count due to remaining E_F inaccuracy: 0.00000000E+00
  | Maximum occupation number of highest empty state:  0.00E+00

  Writing Kohn-Sham eigenvalues.

  State    Occupation    Eigenvalue [Ha]    Eigenvalue [eV]
      1       2.00000         -19.012363         -517.35271
      2       2.00000         -18.987614         -516.67925
      3       2.00000         -18.971327         -516.23607
      4       2.00000         -18.965125         -516.06730
      5       2.00000          -1.098584          -29.89400
      6       2.00000          -1.070503          -29.12988
      7       2.00000          -1.061593          -28.88740
      8       2.00000          -1.049328          -28.55368
      9       2.00000          -0.622448          -16.93768
     10       2.00000          -0.617053          -16.79087
     11       2.00000          -0.610352          -16.60852
     12       2.00000          -0.584120          -15.89473
     13       2.00000          -0.581645          -15.82736
     14       2.00000          -0.484886          -13.19443
     15       2.00000          -0.461947          -12.57022
     16       2.00000          -0.459237          -12.49648
     17       2.00000          -0.456083          -12.41065
     18       2.00000          -0.410818          -11.17892
     19       2.00000          -0.394753          -10.74177
     20       2.00000          -0.388457          -10.57044
     21       1.00000          -0.100403           -2.73210
     22       0.00000          -0.068449           -1.86260
     23       0.00000          -0.054551           -1.48441
     24       0.00000          -0.045650           -1.24219
     25       0.00000          -0.020658           -0.56214
     26       0.00000          -0.005343           -0.14539
     27       0.00000           0.005014            0.13644
     28       0.00000           0.048852            1.32934
     29       0.00000           0.056433            1.53563
     30       0.00000           0.066208            1.80161
     31       0.00000           0.070808            1.92677
     32       0.00000           0.092175            2.50821
     33       0.00000           0.107328            2.92055
     34       0.00000           0.109858            2.98939
     35       0.00000           0.113849            3.09798
     36       0.00000           0.124405            3.38524
     37       0.00000           0.124635            3.39148
     38       0.00000           0.143576            3.90691
     39       0.00000           0.147334            4.00916
     40       0.00000           0.150188            4.08682
     41       0.00000           0.155572            4.23333
     42       0.00000           0.178867            4.86723
     43       0.00000           0.188477            5.12873
     44       0.00000           0.211815            5.76377
     45       0.00000           0.221640            6.03114
     46       0.00000           0.248045            6.74964
     47       0.00000           0.254685            6.93034
     48       0.00000           0.275572            7.49869
     49       0.00000           0.287899            7.83413
     50       0.00000           0.299654            8.15399
     51       0.00000           0.333867            9.08500
     52       0.00000           0.344407            9.37179
     53       0.00000           0.353536            9.62021
     54       0.00000           0.371677           10.11384
     55       0.00000           0.387694           10.54970
     56       0.00000           0.391566           10.65505
     57       0.00000           0.410987           11.18352
     58       0.00000           0.421122           11.45930
     59       0.00000           0.433715           11.80198
     60       0.00000           0.448386           12.20119
     61       0.00000           0.457995           12.46269
     62       0.00000           0.466571           12.69603
     63       0.00000           0.479532           13.04872
     64       0.00000           0.495378           13.47993
     65       0.00000           0.515723           14.03354
     66       0.00000           0.536039           14.58638
     67       0.00000           0.560733           15.25832
     68       0.00000           0.577277           15.70850
     69       0.00000           0.583336           15.87338
     70       0.00000           0.641029           17.44328
     71       0.00000           0.687795           18.71586
     72       0.00000           0.704647           19.17443
     73       0.00000           0.749085           20.38363

  Highest occupied state (VBM) at     -2.73210245 eV
  | Occupation number:      1.00000000

  Lowest unoccupied state (CBM) at    -2.73210245 eV
  | Occupation number:      1.00000000

  Overall HOMO-LUMO gap:      0.00000000 eV.

  Total energy components:
  | Sum of eigenvalues            :        -172.67687352 Ha       -4698.77679967 eV
  | XC energy correction          :         -36.97675552 Ha       -1006.18871200 eV
  | XC potential correction       :          47.25571592 Ha        1285.89345567 eV
  | Free-atom electrostatic energy:        -142.80688246 Ha       -3885.97298779 eV
  | Hartree energy correction     :          -1.61978597 Ha         -44.07661891 eV
  | van der Waals energy corr.    :           0.00000000 Ha           0.00000000 eV
  | Entropy correction            :          -0.00010367 Ha          -0.00282095 eV
  | ---------------------------
  | Total energy                  :        -306.82458155 Ha       -8349.12166270 eV
  | Total energy, T -> 0          :        -306.82468522 Ha       -8349.12448365 eV  <-- do not rely on this value for anything but (periodic) metals
  | Electronic free energy        :        -306.82478889 Ha       -8349.12730459 eV

  Derived energy quantities:
  | Kinetic energy                :         305.06516107 Ha        8301.24539547 eV
  | Electrostatic energy          :        -574.91298711 Ha      -15644.17834617 eV
  | Energy correction for multipole
  | error in Hartree potential    :           0.00036788 Ha           0.01001061 eV
  | Sum of eigenvalues per atom                           :        -361.44436921 eV
  | Total energy (T->0) per atom                          :        -642.24034490 eV  <-- do not rely on this value for anything but (periodic) metals
  | Electronic free energy per atom                       :        -642.24056189 eV

  Self-consistency convergence accuracy:
  | Change of charge density      : 0.5840E+00
  | Change of sum of eigenvalues  : 0.4538E+02 eV
  | Change of total energy        : 0.2832E+01 eV

  End self-consistency iteration #     1       :  max(cpu_time)    wall_clock(cpu1)
  | Time for this iteration                    :        1.348 s           1.348 s
  | Charge density update                      :        0.443 s           0.443 s
  | Density mixing                             :        0.003 s           0.003 s
  | Hartree multipole update                   :        0.004 s           0.005 s
  | Hartree multipole summation                :        0.241 s           0.241 s
  | Integration                                :        0.619 s           0.619 s
  | Solution of K.-S. eqns.                    :        0.037 s           0.037 s
  | Total energy evaluation                    :        0.000 s           0.000 s
------------------------------------------------------------

------------------------------------------------------------
          Begin self-consistency iteration #    2

  Date     :  20150727, Time     :  123044.539
------------------------------------------------------------
  Evaluating new KS density.
  Integration grid: deviation in total charge (<rho> - N_e) =  -7.105427E-15
  Pulay mixing of updated and previous charge densities.

  Evaluating partitioned Hartree potential by multipole expansion.
  | Analytical far-field extrapolation by fixed multipoles:
  | Hartree multipole sum: apparent total charge =  -0.941835E-06
  Summing up the Hartree potential.
  Time summed over all CPUs for potential: real work        1.918 s, elapsed        1.923 s
  | RMS charge density error from multipole expansion :   0.618830E-02

  Integrating Hamiltonian matrix: batch-based integration.
  Time summed over all CPUs for integration: real work        4.783 s, elapsed        4.933 s

  Updating Kohn-Sham eigenvalues, eigenvectors, occupation numbers, and Fermi level.
  Solving generalized eigenproblem
  Updating Kohn-Sham eigenvalues and eigenfunctions.
  Solving real generalised eigenvalue problem by standard LAPACK (fast)
  Determining occupation numbers for Kohn-Sham eigenstates.
  | Chemical potential (Fermi level) in eV                 : -.22634280E+01
  | Error in electron count due to remaining E_F inaccuracy: 0.00000000E+00
  | Maximum occupation number of highest empty state:  0.00E+00

  Highest occupied state (VBM) at     -2.26342802 eV
  | Occupation number:      1.00000000

  Lowest unoccupied state (CBM) at    -2.26342802 eV
  | Occupation number:      1.00000000

  Overall HOMO-LUMO gap:      0.00000000 eV.

  Total energy components:
  | Sum of eigenvalues            :        -168.70293768 Ha       -4590.64050355 eV
  | XC energy correction          :         -37.43358974 Ha       -1018.61980351 eV
  | XC potential correction       :          47.85224308 Ha        1302.12578559 eV
  | Free-atom electrostatic energy:        -142.80688246 Ha       -3885.97298779 eV
  | Hartree energy correction     :          -5.61526199 Ha        -152.79905299 eV
  | van der Waals energy corr.    :           0.00000000 Ha           0.00000000 eV
  | Entropy correction            :          -0.00010367 Ha          -0.00282095 eV
  | ---------------------------
  | Total energy                  :        -306.70642878 Ha       -8345.90656225 eV
  | Total energy, T -> 0          :        -306.70653245 Ha       -8345.90938320 eV  <-- do not rely on this value for anything but (periodic) metals
  | Electronic free energy        :        -306.70663612 Ha       -8345.91220414 eV

  Derived energy quantities:
  | Kinetic energy                :         307.37527232 Ha        8364.10672097 eV
  | Electrostatic energy          :        -576.64811137 Ha      -15691.39347971 eV
  | Energy correction for multipole
  | error in Hartree potential    :           0.00083081 Ha           0.02260747 eV
  | Sum of eigenvalues per atom                           :        -353.12619258 eV
  | Total energy (T->0) per atom                          :        -641.99302948 eV  <-- do not rely on this value for anything but (periodic) metals
  | Electronic free energy per atom                       :        -641.99324647 eV

  Self-consistency convergence accuracy:
  | Change of charge density      : 0.4436E+00
  | Change of sum of eigenvalues  : 0.1081E+03 eV
  | Change of total energy        : 0.3215E+01 eV

  End self-consistency iteration #     2       :  max(cpu_time)    wall_clock(cpu1)
  | Time for this iteration                    :        1.345 s           1.344 s
  | Charge density update                      :        0.440 s           0.440 s
  | Density mixing                             :        0.004 s           0.004 s
  | Hartree multipole update                   :        0.004 s           0.005 s
  | Hartree multipole summation                :        0.241 s           0.241 s
  | Integration                                :        0.618 s           0.618 s
  | Solution of K.-S. eqns.                    :        0.036 s           0.036 s
  | Total energy evaluation                    :        0.001 s           0.000 s
------------------------------------------------------------

------------------------------------------------------------
          Begin self-consistency iteration #    3

  Date     :  20150727, Time     :  123045.884
------------------------------------------------------------
  Evaluating new KS density.
  Integration grid: deviation in total charge (<rho> - N_e) =   1.421085E-14
  Pulay mixing of updated and previous charge densities.

  Evaluating partitioned Hartree potential by multipole expansion.
  | Analytical far-field extrapolation by fixed multipoles:
  | Hartree multipole sum: apparent total charge =   0.102677E-05
  Summing up the Hartree potential.
  Time summed over all CPUs for potential: real work        1.918 s, elapsed        1.924 s
  | RMS charge density error from multipole expansion :   0.125107E-01

  Integrating Hamiltonian matrix: batch-based integration.
  Time summed over all CPUs for integration: real work        4.788 s, elapsed        4.925 s

  Updating Kohn-Sham eigenvalues, eigenvectors, occupation numbers, and Fermi level.
  Solving generalized eigenproblem
  Updating Kohn-Sham eigenvalues and eigenfunctions.
  Solving real generalised eigenvalue problem by standard LAPACK (fast)
  Determining occupation numbers for Kohn-Sham eigenstates.
  | Chemical potential (Fermi level) in eV                 : -.22373728E+01
  | Error in electron count due to remaining E_F inaccuracy: 0.13472459E-08
  | Maximum occupation number of highest empty state:  0.00E+00

  Highest occupied state (VBM) at     -2.23737282 eV
  | Occupation number:      1.00000000

  Lowest unoccupied state (CBM) at    -1.30402697 eV
  | Occupation number:      0.00000000

  Overall HOMO-LUMO gap:      0.93334584 eV.

  Total energy components:
  | Sum of eigenvalues            :        -169.14045447 Ha       -4602.54594104 eV
  | XC energy correction          :         -37.40195139 Ha       -1017.75888036 eV
  | XC potential correction       :          47.80449219 Ha        1300.82641770 eV
  | Free-atom electrostatic energy:        -142.80688246 Ha       -3885.97298779 eV
  | Hartree energy correction     :          -5.16100941 Ha        -140.43821140 eV
  | van der Waals energy corr.    :           0.00000000 Ha           0.00000000 eV
  | Entropy correction            :          -0.00010367 Ha          -0.00282095 eV
  | ---------------------------
  | Total energy                  :        -306.70580554 Ha       -8345.88960288 eV
  | Total energy, T -> 0          :        -306.70590921 Ha       -8345.89242383 eV  <-- do not rely on this value for anything but (periodic) metals
  | Electronic free energy        :        -306.70601287 Ha       -8345.89524478 eV

  Derived energy quantities:
  | Kinetic energy                :         305.79878372 Ha        8321.20828345 eV
  | Electrostatic energy          :        -575.10263787 Ha      -15649.33900598 eV
  | Energy correction for multipole
  | error in Hartree potential    :          -0.00156489 Ha          -0.04258286 eV
  | Sum of eigenvalues per atom                           :        -354.04199546 eV
  | Total energy (T->0) per atom                          :        -641.99172491 eV  <-- do not rely on this value for anything but (periodic) metals
  | Electronic free energy per atom                       :        -641.99194191 eV

  Self-consistency convergence accuracy:
  | Change of charge density      : 0.2180E+00
  | Change of sum of eigenvalues  : -.1191E+02 eV
  | Change of total energy        : 0.1696E-01 eV

  End self-consistency iteration #     3       :  max(cpu_time)    wall_clock(cpu1)
  | Time for this iteration                    :        1.339 s           1.339 s
  | Charge density update                      :        0.434 s           0.434 s
  | Density mixing                             :        0.006 s           0.006 s
  | Hartree multipole update                   :        0.004 s           0.004 s
  | Hartree multipole summation                :        0.242 s           0.241 s
  | Integration                                :        0.617 s           0.617 s
  | Solution of K.-S. eqns.                    :        0.036 s           0.036 s
  | Total energy evaluation                    :        0.000 s           0.001 s
------------------------------------------------------------

------------------------------------------------------------
          Begin self-consistency iteration #    4

  Date     :  20150727, Time     :  123047.223
------------------------------------------------------------
  Evaluating new KS density.
  Integration grid: deviation in total charge (<rho> - N_e) =   1.347253E-09
  Pulay mixing of updated and previous charge densities.

  Evaluating partitioned Hartree potential by multipole expansion.
  | Analytical far-field extrapolation by fixed multipoles:
  | Hartree multipole sum: apparent total charge =   0.141707E-05
  Summing up the Hartree potential.
  Time summed over all CPUs for potential: real work        1.917 s, elapsed        1.923 s
  | RMS charge density error from multipole expansion :   0.163151E-01

  Integrating Hamiltonian matrix: batch-based integration.
  Time summed over all CPUs for integration: real work        4.772 s, elapsed        4.909 s

  Updating Kohn-Sham eigenvalues, eigenvectors, occupation numbers, and Fermi level.
  Solving generalized eigenproblem
  Updating Kohn-Sham eigenvalues and eigenfunctions.
  Solving real generalised eigenvalue problem by standard LAPACK (fast)
  Determining occupation numbers for Kohn-Sham eigenstates.
  | Chemical potential (Fermi level) in eV                 : -.20907681E+01
  | Error in electron count due to remaining E_F inaccuracy: 0.48601123E-11
  | Maximum occupation number of highest empty state:  0.00E+00

  Highest occupied state (VBM) at     -2.09076806 eV
  | Occupation number:      1.00000000

  Lowest unoccupied state (CBM) at    -1.14957711 eV
  | Occupation number:      0.00000000

  Overall HOMO-LUMO gap:      0.94119095 eV.

  Total energy components:
  | Sum of eigenvalues            :        -168.00640966 Ha       -4571.68701168 eV
  | XC energy correction          :         -37.55559939 Ha       -1021.93985513 eV
  | XC potential correction       :          48.00332329 Ha        1306.23688735 eV
  | Free-atom electrostatic energy:        -142.80688246 Ha       -3885.97298779 eV
  | Hartree energy correction     :          -6.33346886 Ha        -172.34245644 eV
  | van der Waals energy corr.    :           0.00000000 Ha           0.00000000 eV
  | Entropy correction            :          -0.00010367 Ha          -0.00282095 eV
  | ---------------------------
  | Total energy                  :        -306.69903708 Ha       -8345.70542368 eV
  | Total energy, T -> 0          :        -306.69914074 Ha       -8345.70824463 eV  <-- do not rely on this value for anything but (periodic) metals
  | Electronic free energy        :        -306.69924441 Ha       -8345.71106558 eV

  Derived energy quantities:
  | Kinetic energy                :         305.96137511 Ha        8325.63262038 eV
  | Electrostatic energy          :        -575.10481280 Ha      -15649.39818894 eV
  | Energy correction for multipole
  | error in Hartree potential    :          -0.00232340 Ha          -0.06322302 eV
  | Sum of eigenvalues per atom                           :        -351.66823167 eV
  | Total energy (T->0) per atom                          :        -641.97755728 eV  <-- do not rely on this value for anything but (periodic) metals
  | Electronic free energy per atom                       :        -641.97777428 eV

  Self-consistency convergence accuracy:
  | Change of charge density      : 0.1121E+00
  | Change of sum of eigenvalues  : 0.3086E+02 eV
  | Change of total energy        : 0.1842E+00 eV

  End self-consistency iteration #     4       :  max(cpu_time)    wall_clock(cpu1)
  | Time for this iteration                    :        1.339 s           1.338 s
  | Charge density update                      :        0.435 s           0.434 s
  | Density mixing                             :        0.007 s           0.007 s
  | Hartree multipole update                   :        0.004 s           0.005 s
  | Hartree multipole summation                :        0.241 s           0.241 s
  | Integration                                :        0.615 s           0.614 s
  | Solution of K.-S. eqns.                    :        0.036 s           0.036 s
  | Total energy evaluation                    :        0.000 s           0.000 s
------------------------------------------------------------

------------------------------------------------------------
          Begin self-consistency iteration #    5

  Date     :  20150727, Time     :  123048.561
------------------------------------------------------------
  Evaluating new KS density.
  Integration grid: deviation in total charge (<rho> - N_e) =   4.838796E-12
  Pulay mixing of updated and previous charge densities.

  Evaluating partitioned Hartree potential by multipole expansion.
  | Analytical far-field extrapolation by fixed multipoles:
  | Hartree multipole sum: apparent total charge =   0.153115E-05
  Summing up the Hartree potential.
  Time summed over all CPUs for potential: real work        1.917 s, elapsed        1.923 s
  | RMS charge density error from multipole expansion :   0.163898E-01

  Integrating Hamiltonian matrix: batch-based integration.
  Time summed over all CPUs for integration: real work        4.771 s, elapsed        4.909 s

  Updating Kohn-Sham eigenvalues, eigenvectors, occupation numbers, and Fermi level.
  Solving generalized eigenproblem
  Updating Kohn-Sham eigenvalues and eigenfunctions.
  Solving real generalised eigenvalue problem by standard LAPACK (fast)
  Determining occupation numbers for Kohn-Sham eigenstates.
  | Chemical potential (Fermi level) in eV                 : -.21034361E+01
  | Error in electron count due to remaining E_F inaccuracy: 0.00000000E+00
  | Maximum occupation number of highest empty state:  0.00E+00

  Highest occupied state (VBM) at     -2.10343612 eV
  | Occupation number:      1.00000000

  Lowest unoccupied state (CBM) at    -2.10343612 eV
  | Occupation number:      1.00000000

  Overall HOMO-LUMO gap:      0.00000000 eV.

  Total energy components:
  | Sum of eigenvalues            :        -168.03345453 Ha       -4572.42294020 eV
  | XC energy correction          :         -37.55218443 Ha       -1021.84692926 eV
  | XC potential correction       :          47.99858006 Ha        1306.10781754 eV
  | Free-atom electrostatic energy:        -142.80688246 Ha       -3885.97298779 eV
  | Hartree energy correction     :          -6.30499686 Ha        -171.56769395 eV
  | van der Waals energy corr.    :           0.00000000 Ha           0.00000000 eV
  | Entropy correction            :          -0.00010367 Ha          -0.00282095 eV
  | ---------------------------
  | Total energy                  :        -306.69893822 Ha       -8345.70273367 eV
  | Total energy, T -> 0          :        -306.69904189 Ha       -8345.70555462 eV  <-- do not rely on this value for anything but (periodic) metals
  | Electronic free energy        :        -306.69914556 Ha       -8345.70837556 eV

  Derived energy quantities:
  | Kinetic energy                :         305.99306528 Ha        8326.49495378 eV
  | Electrostatic energy          :        -575.13981908 Ha      -15650.35075819 eV
  | Energy correction for multipole
  | error in Hartree potential    :          -0.00231081 Ha          -0.06288037 eV
  | Sum of eigenvalues per atom                           :        -351.72484155 eV
  | Total energy (T->0) per atom                          :        -641.97735036 eV  <-- do not rely on this value for anything but (periodic) metals
  | Electronic free energy per atom                       :        -641.97756735 eV

  Self-consistency convergence accuracy:
  | Change of charge density      : 0.1366E-01
  | Change of sum of eigenvalues  : -.7359E+00 eV
  | Change of total energy        : 0.2690E-02 eV

  End self-consistency iteration #     5       :  max(cpu_time)    wall_clock(cpu1)
  | Time for this iteration                    :        1.340 s           1.340 s
  | Charge density update                      :        0.435 s           0.435 s
  | Density mixing                             :        0.008 s           0.008 s
  | Hartree multipole update                   :        0.004 s           0.005 s
  | Hartree multipole summation                :        0.241 s           0.241 s
  | Integration                                :        0.614 s           0.614 s
  | Solution of K.-S. eqns.                    :        0.036 s           0.036 s
  | Total energy evaluation                    :        0.000 s           0.000 s
------------------------------------------------------------

------------------------------------------------------------
          Begin self-consistency iteration #    6

  Date     :  20150727, Time     :  123049.901
------------------------------------------------------------
  Evaluating new KS density.
  Integration grid: deviation in total charge (<rho> - N_e) =  -7.105427E-15
  Pulay mixing of updated and previous charge densities.

  Evaluating partitioned Hartree potential by multipole expansion.
  | Analytical far-field extrapolation by fixed multipoles:
  | Hartree multipole sum: apparent total charge =   0.159016E-05
  Summing up the Hartree potential.
  Time summed over all CPUs for potential: real work        1.917 s, elapsed        1.923 s
  | RMS charge density error from multipole expansion :   0.165277E-01

  Integrating Hamiltonian matrix: batch-based integration.
  Time summed over all CPUs for integration: real work        4.771 s, elapsed        4.917 s

  Updating Kohn-Sham eigenvalues, eigenvectors, occupation numbers, and Fermi level.
  Solving generalized eigenproblem
  Updating Kohn-Sham eigenvalues and eigenfunctions.
  Solving real generalised eigenvalue problem by standard LAPACK (fast)
  Determining occupation numbers for Kohn-Sham eigenstates.
  | Chemical potential (Fermi level) in eV                 : -.21060146E+01
  | Error in electron count due to remaining E_F inaccuracy: -.29319622E-08
  | Maximum occupation number of highest empty state:  0.00E+00

  Highest occupied state (VBM) at     -6.92315821 eV
  | Occupation number:      2.00000000

  Lowest unoccupied state (CBM) at    -2.10601455 eV
  | Occupation number:      1.00000000

  Overall HOMO-LUMO gap:      4.81714366 eV.

  Total energy components:
  | Sum of eigenvalues            :        -168.05498934 Ha       -4573.00893208 eV
  | XC energy correction          :         -37.55030352 Ha       -1021.79574722 eV
  | XC potential correction       :          47.99591306 Ha        1306.03524484 eV
  | Free-atom electrostatic energy:        -142.80688246 Ha       -3885.97298779 eV
  | Hartree energy correction     :          -6.28267116 Ha        -170.96018052 eV
  | van der Waals energy corr.    :           0.00000000 Ha           0.00000000 eV
  | Entropy correction            :          -0.00010367 Ha          -0.00282095 eV
  | ---------------------------
  | Total energy                  :        -306.69893341 Ha       -8345.70260277 eV
  | Total energy, T -> 0          :        -306.69903708 Ha       -8345.70542372 eV  <-- do not rely on this value for anything but (periodic) metals
  | Electronic free energy        :        -306.69914075 Ha       -8345.70824467 eV

  Derived energy quantities:
  | Kinetic energy                :         305.98340796 Ha        8326.23216458 eV
  | Electrostatic energy          :        -575.13203785 Ha      -15650.13902013 eV
  | Energy correction for multipole
  | error in Hartree potential    :          -0.00234110 Ha          -0.06370446 eV
  | Sum of eigenvalues per atom                           :        -351.76991785 eV
  | Total energy (T->0) per atom                          :        -641.97734029 eV  <-- do not rely on this value for anything but (periodic) metals
  | Electronic free energy per atom                       :        -641.97755728 eV

  Self-consistency convergence accuracy:
  | Change of charge density      : 0.7475E-02
  | Change of sum of eigenvalues  : -.5860E+00 eV
  | Change of total energy        : 0.1309E-03 eV

  End self-consistency iteration #     6       :  max(cpu_time)    wall_clock(cpu1)
  | Time for this iteration                    :        1.344 s           1.344 s
  | Charge density update                      :        0.436 s           0.436 s
  | Density mixing                             :        0.010 s           0.009 s
  | Hartree multipole update                   :        0.004 s           0.004 s
  | Hartree multipole summation                :        0.241 s           0.241 s
  | Integration                                :        0.616 s           0.616 s
  | Solution of K.-S. eqns.                    :        0.036 s           0.036 s
  | Total energy evaluation                    :        0.000 s           0.000 s
------------------------------------------------------------

------------------------------------------------------------
          Begin self-consistency iteration #    7

  Date     :  20150727, Time     :  123051.245
------------------------------------------------------------
  Evaluating new KS density.
  Integration grid: deviation in total charge (<rho> - N_e) =  -2.931955E-09
  Pulay mixing of updated and previous charge densities.

  Evaluating partitioned Hartree potential by multipole expansion.
  | Analytical far-field extrapolation by fixed multipoles:
  | Hartree multipole sum: apparent total charge =   0.171802E-05
  Summing up the Hartree potential.
  Time summed over all CPUs for potential: real work        1.917 s, elapsed        1.924 s
  | RMS charge density error from multipole expansion :   0.166182E-01

  Integrating Hamiltonian matrix: batch-based integration.
  Time summed over all CPUs for integration: real work        4.771 s, elapsed        4.923 s

  Updating Kohn-Sham eigenvalues, eigenvectors, occupation numbers, and Fermi level.
  Solving generalized eigenproblem
  Updating Kohn-Sham eigenvalues and eigenfunctions.
  Solving real generalised eigenvalue problem by standard LAPACK (fast)
  Determining occupation numbers for Kohn-Sham eigenstates.
  | Chemical potential (Fermi level) in eV                 : -.21071322E+01
  | Error in electron count due to remaining E_F inaccuracy: -.66982864E-10
  | Maximum occupation number of highest empty state:  0.00E+00

  Highest occupied state (VBM) at     -6.97676783 eV
  | Occupation number:      2.00000000

  Lowest unoccupied state (CBM) at    -2.10713220 eV
  | Occupation number:      1.00000000

  Overall HOMO-LUMO gap:      4.86963563 eV.

  Total energy components:
  | Sum of eigenvalues            :        -168.09641020 Ha       -4574.13605089 eV
  | XC energy correction          :         -37.54586737 Ha       -1021.67503337 eV
  | XC potential correction       :          47.98983997 Ha        1305.86998745 eV
  | Free-atom electrostatic energy:        -142.80688246 Ha       -3885.97298779 eV
  | Hartree energy correction     :          -6.23959761 Ha        -169.78808964 eV
  | van der Waals energy corr.    :           0.00000000 Ha           0.00000000 eV
  | Entropy correction            :          -0.00010367 Ha          -0.00282095 eV
  | ---------------------------
  | Total energy                  :        -306.69891766 Ha       -8345.70217424 eV
  | Total energy, T -> 0          :        -306.69902133 Ha       -8345.70499518 eV  <-- do not rely on this value for anything but (periodic) metals
  | Electronic free energy        :        -306.69912500 Ha       -8345.70781613 eV

  Derived energy quantities:
  | Kinetic energy                :         306.01048960 Ha        8326.96909358 eV
  | Electrostatic energy          :        -575.16353989 Ha      -15650.99623444 eV
  | Energy correction for multipole
  | error in Hartree potential    :          -0.00232194 Ha          -0.06318325 eV
  | Sum of eigenvalues per atom                           :        -351.85661930 eV
  | Total energy (T->0) per atom                          :        -641.97730732 eV  <-- do not rely on this value for anything but (periodic) metals
  | Electronic free energy per atom                       :        -641.97752432 eV

  Self-consistency convergence accuracy:
  | Change of charge density      : 0.5495E-02
  | Change of sum of eigenvalues  : -.1127E+01 eV
  | Change of total energy        : 0.4285E-03 eV

  End self-consistency iteration #     7       :  max(cpu_time)    wall_clock(cpu1)
  | Time for this iteration                    :        1.344 s           1.344 s
  | Charge density update                      :        0.435 s           0.435 s
  | Density mixing                             :        0.011 s           0.011 s
  | Hartree multipole update                   :        0.004 s           0.004 s
  | Hartree multipole summation                :        0.241 s           0.241 s
  | Integration                                :        0.617 s           0.617 s
  | Solution of K.-S. eqns.                    :        0.036 s           0.036 s
  | Total energy evaluation                    :        0.000 s           0.000 s
------------------------------------------------------------

------------------------------------------------------------
          Begin self-consistency iteration #    8

  Date     :  20150727, Time     :  123052.589
------------------------------------------------------------
  Evaluating new KS density.
  Integration grid: deviation in total charge (<rho> - N_e) =  -6.696865E-11
  Pulay mixing of updated and previous charge densities.

  Evaluating partitioned Hartree potential by multipole expansion.
  | Analytical far-field extrapolation by fixed multipoles:
  | Hartree multipole sum: apparent total charge =   0.174928E-05
  Summing up the Hartree potential.
  Time summed over all CPUs for potential: real work        1.917 s, elapsed        1.924 s
  | RMS charge density error from multipole expansion :   0.166317E-01

  Integrating Hamiltonian matrix: batch-based integration.
  Time summed over all CPUs for integration: real work        4.763 s, elapsed        4.914 s

  Updating Kohn-Sham eigenvalues, eigenvectors, occupation numbers, and Fermi level.
  Solving generalized eigenproblem
  Updating Kohn-Sham eigenvalues and eigenfunctions.
  Solving real generalised eigenvalue problem by standard LAPACK (fast)
  Determining occupation numbers for Kohn-Sham eigenstates.
  | Chemical potential (Fermi level) in eV                 : -.21122691E+01
  | Error in electron count due to remaining E_F inaccuracy: -.11084467E-11
  | Maximum occupation number of highest empty state:  0.00E+00

  Highest occupied state (VBM) at     -6.98477538 eV
  | Occupation number:      2.00000000

  Lowest unoccupied state (CBM) at    -2.11226914 eV
  | Occupation number:      1.00000000

  Overall HOMO-LUMO gap:      4.87250625 eV.

  Total energy components:
  | Sum of eigenvalues            :        -168.10993526 Ha       -4574.50408671 eV
  | XC energy correction          :         -37.54447285 Ha       -1021.63708650 eV
  | XC potential correction       :          47.98795382 Ha        1305.81866284 eV
  | Free-atom electrostatic energy:        -142.80688246 Ha       -3885.97298779 eV
  | Hartree energy correction     :          -6.22557845 Ha        -169.40660897 eV
  | van der Waals energy corr.    :           0.00000000 Ha           0.00000000 eV
  | Entropy correction            :          -0.00010367 Ha          -0.00282095 eV
  | ---------------------------
  | Total energy                  :        -306.69891520 Ha       -8345.70210712 eV
  | Total energy, T -> 0          :        -306.69901886 Ha       -8345.70492807 eV  <-- do not rely on this value for anything but (periodic) metals
  | Electronic free energy        :        -306.69912253 Ha       -8345.70774902 eV

  Derived energy quantities:
  | Kinetic energy                :         306.01431939 Ha        8327.07330736 eV
  | Electrostatic energy          :        -575.16876174 Ha      -15651.13832798 eV
  | Energy correction for multipole
  | error in Hartree potential    :          -0.00232077 Ha          -0.06315140 eV
  | Sum of eigenvalues per atom                           :        -351.88492975 eV
  | Total energy (T->0) per atom                          :        -641.97730216 eV  <-- do not rely on this value for anything but (periodic) metals
  | Electronic free energy per atom                       :        -641.97751916 eV

  Self-consistency convergence accuracy:
  | Change of charge density      : 0.1886E-02
  | Change of sum of eigenvalues  : -.3680E+00 eV
  | Change of total energy        : 0.6712E-04 eV

  End self-consistency iteration #     8       :  max(cpu_time)    wall_clock(cpu1)
  | Time for this iteration                    :        1.343 s           1.344 s
  | Charge density update                      :        0.434 s           0.435 s
  | Density mixing                             :        0.012 s           0.011 s
  | Hartree multipole update                   :        0.004 s           0.005 s
  | Hartree multipole summation                :        0.241 s           0.241 s
  | Integration                                :        0.616 s           0.615 s
  | Solution of K.-S. eqns.                    :        0.036 s           0.036 s
  | Total energy evaluation                    :        0.000 s           0.001 s
------------------------------------------------------------

------------------------------------------------------------
          Begin self-consistency iteration #    9

  Date     :  20150727, Time     :  123053.933
------------------------------------------------------------
  Evaluating new KS density.
  Integration grid: deviation in total charge (<rho> - N_e) =  -1.101341E-12
  Pulay mixing of updated and previous charge densities.

  Evaluating partitioned Hartree potential by multipole expansion.
  | Analytical far-field extrapolation by fixed multipoles:
  | Hartree multipole sum: apparent total charge =   0.175149E-05
  Summing up the Hartree potential.
  Time summed over all CPUs for potential: real work        1.917 s, elapsed        1.924 s
  | RMS charge density error from multipole expansion :   0.166214E-01

  Integrating Hamiltonian matrix: batch-based integration.
  Time summed over all CPUs for integration: real work        4.772 s, elapsed        4.925 s

  Updating Kohn-Sham eigenvalues, eigenvectors, occupation numbers, and Fermi level.
  Solving generalized eigenproblem
  Updating Kohn-Sham eigenvalues and eigenfunctions.
  Solving real generalised eigenvalue problem by standard LAPACK (fast)
  Determining occupation numbers for Kohn-Sham eigenstates.
  | Chemical potential (Fermi level) in eV                 : -.21136962E+01
  | Error in electron count due to remaining E_F inaccuracy: -.20371260E-10
  | Maximum occupation number of highest empty state:  0.00E+00

  Highest occupied state (VBM) at     -6.98218504 eV
  | Occupation number:      2.00000000

  Lowest unoccupied state (CBM) at    -2.11369619 eV
  | Occupation number:      1.00000000

  Overall HOMO-LUMO gap:      4.86848885 eV.

  Total energy components:
  | Sum of eigenvalues            :        -168.10903239 Ha       -4574.47951834 eV
  | XC energy correction          :         -37.54461087 Ha       -1021.64084223 eV
  | XC potential correction       :          47.98813949 Ha        1305.82371521 eV
  | Free-atom electrostatic energy:        -142.80688246 Ha       -3885.97298779 eV
  | Hartree energy correction     :          -6.22652794 Ha        -169.43244593 eV
  | van der Waals energy corr.    :           0.00000000 Ha           0.00000000 eV
  | Entropy correction            :          -0.00010367 Ha          -0.00282095 eV
  | ---------------------------
  | Total energy                  :        -306.69891417 Ha       -8345.70207909 eV
  | Total energy, T -> 0          :        -306.69901783 Ha       -8345.70490004 eV  <-- do not rely on this value for anything but (periodic) metals
  | Electronic free energy        :        -306.69912150 Ha       -8345.70772099 eV

  Derived energy quantities:
  | Kinetic energy                :         306.01921405 Ha        8327.20649781 eV
  | Electrostatic energy          :        -575.17351734 Ha      -15651.26773467 eV
  | Energy correction for multipole
  | error in Hartree potential    :          -0.00231626 Ha          -0.06302866 eV
  | Sum of eigenvalues per atom                           :        -351.88303987 eV
  | Total energy (T->0) per atom                          :        -641.97730000 eV  <-- do not rely on this value for anything but (periodic) metals
  | Electronic free energy per atom                       :        -641.97751700 eV

  Self-consistency convergence accuracy:
  | Change of charge density      : 0.6936E-03
  | Change of sum of eigenvalues  : 0.2457E-01 eV
  | Change of total energy        : 0.2803E-04 eV

  End self-consistency iteration #     9       :  max(cpu_time)    wall_clock(cpu1)
  | Time for this iteration                    :        1.349 s           1.348 s
  | Charge density update                      :        0.437 s           0.436 s
  | Density mixing                             :        0.013 s           0.013 s
  | Hartree multipole update                   :        0.004 s           0.005 s
  | Hartree multipole summation                :        0.241 s           0.241 s
  | Integration                                :        0.617 s           0.617 s
  | Solution of K.-S. eqns.                    :        0.036 s           0.036 s
  | Total energy evaluation                    :        0.001 s           0.000 s
------------------------------------------------------------

------------------------------------------------------------
          Begin self-consistency iteration #   10

  Date     :  20150727, Time     :  123055.281
------------------------------------------------------------
  Evaluating new KS density.
  Integration grid: deviation in total charge (<rho> - N_e) =  -2.039258E-11
[...]
  | Electronic free energy        :        -306.70122458 Ha       -8345.76494871 eV

  Derived energy quantities:
  | Kinetic energy                :         306.01947738 Ha        8327.21366357 eV
  | Electrostatic energy          :        -575.17412143 Ha      -15651.28417262 eV
  | Energy correction for multipole
  | error in Hartree potential    :          -0.00231955 Ha          -0.06311820 eV
  | Sum of eigenvalues per atom                           :        -351.89066690 eV
  | Total energy (T->0) per atom                          :        -641.98170214 eV  <-- do not rely on this value for anything but (periodic) metals
  | Electronic free energy per atom                       :        -641.98191913 eV

  atomic forces [eV/Ang]:
  -----------------------
  atom #    1
   Hellmann-Feynman + Multipole  : -.257123E+01 -.657984E+01 -.862885E+01
   Pulay + GGA                   : 0.283467E+01 0.788286E+01 0.689864E+01
   Van der Waals               : 0.425792E-02 0.501289E-02 -.482720E-02
   ----------------------------------------------------------------
   Total forces(   1)            : 0.267692E+00 0.130803E+01 -.173503E+01
  atom #    2
   Hellmann-Feynman + Multipole  : 0.505316E+00 -.103547E+01 0.424467E+00
   Pulay + GGA                   : -.961147E-01 0.134102E+00 -.680111E-01
   Van der Waals               : 0.162464E-02 0.508633E-02 0.621704E-03
   ----------------------------------------------------------------
   Total forces(   2)            : 0.410826E+00 -.896278E+00 0.357078E+00
  atom #    3
   Hellmann-Feynman + Multipole  : -.547540E+00 -.186685E+00 0.542172E-01
   Pulay + GGA                   : 0.148508E+00 0.429346E-02 0.101330E-02
   Van der Waals               : 0.254271E-03 -.720752E-03 -.327330E-02
   ----------------------------------------------------------------
   Total forces(   3)            : -.398778E+00 -.183112E+00 0.519572E-01
  atom #    4
   Hellmann-Feynman + Multipole  : -.107151E+00 -.922000E-01 0.105845E+01
   Pulay + GGA                   : -.359115E-01 -.628211E-02 0.741072E-01
   Van der Waals               : 0.200868E-02 0.450294E-02 0.182610E-02
   ----------------------------------------------------------------
   Total forces(   4)            : -.141053E+00 -.939791E-01 0.113438E+01
  atom #    5
   Hellmann-Feynman + Multipole  : 0.721038E+01 -.552432E+01 -.806192E+01
   Pulay + GGA                   : -.740944E+01 0.398412E+01 0.691283E+01
   Van der Waals               : 0.805958E-03 0.534071E-02 0.519862E-02
   ----------------------------------------------------------------
   Total forces(   5)            : -.198256E+00 -.153486E+01 -.114389E+01
  atom #    6
   Hellmann-Feynman + Multipole  : -.185406E+00 0.923860E+00 0.952711E+00
   Pulay + GGA                   : 0.514025E-01 0.804645E-01 0.113606E+00
   Van der Waals               : -.220854E-02 0.323345E-02 0.743445E-02
   ----------------------------------------------------------------
   Total forces(   6)            : -.136212E+00 0.100756E+01 0.107375E+01
  atom #    7
   Hellmann-Feynman + Multipole  : 0.286964E+00 0.537282E+00 0.238630E+00
   Pulay + GGA                   : -.117735E+00 -.728952E-01 0.487337E-01
   Van der Waals               : -.865744E-04 0.153513E-02 0.232651E-02
   ----------------------------------------------------------------
   Total forces(   7)            : 0.169142E+00 0.465922E+00 0.289690E+00
  atom #    8
   Hellmann-Feynman + Multipole  : -.233265E+01 -.311090E+01 -.169710E+02
   Pulay + GGA                   : 0.308861E+01 0.339760E+01 0.152446E+02
   Van der Waals               : -.107464E-01 -.427005E-02 0.423412E-03
   ----------------------------------------------------------------
   Total forces(   8)            : 0.745218E+00 0.282434E+00 -.172591E+01
  atom #    9
   Hellmann-Feynman + Multipole  : -.430329E+00 -.249428E+00 0.361658E+00
   Pulay + GGA                   : 0.109967E+00 0.691686E-01 0.573207E-01
   Van der Waals               : -.340265E-02 -.163690E-02 -.732939E-03
   ----------------------------------------------------------------
   Total forces(   9)            : -.323765E+00 -.181897E+00 0.418246E+00
  atom #   10
   Hellmann-Feynman + Multipole  : -.372173E+00 -.186276E-01 0.117614E+01
   Pulay + GGA                   : -.785736E-01 -.610118E-01 0.102026E+00
   Van der Waals               : -.730795E-03 -.458548E-02 -.372528E-02
   ----------------------------------------------------------------
   Total forces(  10)            : -.451478E+00 -.842248E-01 0.127444E+01
  atom #   11
   Hellmann-Feynman + Multipole  : 0.111272E+01 -.159468E+02 0.177699E+01
   Pulay + GGA                   : 0.186250E+00 0.159841E+02 -.351267E+01
   Van der Waals               : 0.512647E-02 -.756907E-02 -.324768E-02
   ----------------------------------------------------------------
   Total forces(  11)            : 0.130410E+01 0.297830E-01 -.173892E+01
  atom #   12
   Hellmann-Feynman + Multipole  : -.260840E+00 0.588559E+00 0.217604E+00
   Pulay + GGA                   : -.812254E-01 0.940553E-01 0.899226E-01
   Van der Waals               : 0.172940E-02 -.178467E-02 -.707119E-03
   ----------------------------------------------------------------
   Total forces(  12)            : -.340336E+00 0.680830E+00 0.306819E+00
  atom #   13
   Hellmann-Feynman + Multipole  : -.952832E+00 -.862683E+00 0.153920E+01
   Pulay + GGA                   : 0.483691E-01 0.711071E-01 -.112972E+00
   Van der Waals               : 0.136760E-02 -.414453E-02 -.131727E-02
   ----------------------------------------------------------------
   Total forces(  13)            : -.903095E+00 -.795720E+00 0.142491E+01
  Timings for vdw_correction_hirshfeld (Tkatchenko-Scheffler 2009):
  | CPU time:        3.599 s, Wall clock time:        3.600 s.
  Removing unitary transformations (pure translations, rotations) from forces on atoms.
  Atomic forces before filtering:
  | Net force on center of mass :  0.400134E-02 0.448713E-02 -.124886E-01 eV/A
  | Net torque on center of mass:  0.180345E-01 -.331687E-02 -.829114E-02 eV
  Atomic forces after filtering:
  | Net force on center of mass :  0.178406E-15 -.178406E-15 -.124884E-14 eV/A
  | Net torque on center of mass:  -.306827E-14 0.755268E-15 -.755268E-15 eV
 
  Energy and forces in a compact form:
  | Total energy uncorrected      :         -0.834575930681465E+04 eV
  | Total energy corrected        :         -0.834576212776257E+04 eV  <-- do not rely on this value for anything but (periodic) metals
  | Electronic free energy        :         -0.834576494871049E+04 eV
  Total atomic forces (unitary forces cleaned) [eV/Ang]:
  |   1          0.267443164131632E+00          0.130712219098694E+01         -0.173358360772100E+01
  |   2          0.410386417404475E+00         -0.897385452043194E+00          0.358308564959330E+00
  |   3         -0.399064656545090E+00         -0.183843948544957E+00          0.532185591984184E-01
  |   4         -0.141179433332413E+00         -0.946485326511440E-01          0.113590243093944E+01
  |   5         -0.198182986925480E+00         -0.153510313423091E+01         -0.114228986611784E+01
  |   6         -0.136195055554615E+00          0.100752072319906E+01          0.107511097838511E+01
  |   7          0.169323244333242E+00          0.465631469253225E+00          0.291526588259457E+00
  |   8          0.744732919107144E+00          0.282463097786926E+00         -0.172553657617034E+01
  |   9         -0.324297539954722E+00         -0.181644263595394E+00          0.418383205008933E+00
  |  10         -0.451838563236553E+00         -0.840737973166417E-01          0.127496576740182E+01
  |  11          0.130357235100703E+01          0.295020369752164E-01         -0.173841153965381E+01
  |  12         -0.340919700537743E+00          0.680617733746630E+00          0.307175037941666E+00
  |  13         -0.903780159896903E+00         -0.796158123565743E+00          0.142523045756882E+01
 
  ------------------------------------ 
  Start decomposition of the XC Energy 
  ------------------------------------ 
  Hartree-Fock part   :          0.000000000 Ha              0.000000000 eV
  ------------------------------------ 
  X Energy            :        -36.221678972 Ha           -985.642033737 eV
  C Energy GGA        :         -1.322591187 Ha            -35.989537318 eV
  Total XC Energy     :        -37.544270159 Ha          -1021.631571055 eV
  LDA X and C from self-consistent density 
  X Energy LDA        :        -32.628378690 Ha           -887.863358143 eV
  C Energy LDA        :         -2.676466650 Ha            -72.830363110 eV
  ------------------------------------ 
  End decomposition of the XC Energy 
  ------------------------------------ 
  Performing Hirshfeld analysis of fragment charges and moments.
  ----------------------------------------------------------------------
  | Atom     1: O
  |   Hirshfeld charge        :     -0.12778241
  |   Free atom volume        :     23.95238533
  |   Hirshfeld volume        :     23.23801126
  |   Hirshfeld dipole vector :      0.01020721       0.01682812       0.03877955
  |   Hirshfeld dipole moment :      0.04348824
  |   Hirshfeld second moments:      0.05892943      -0.00072409      -0.00944212
  |                                 -0.00072409       0.00763486      -0.02412712
  |                                 -0.00944212      -0.02412712       0.02797880
  ----------------------------------------------------------------------
  | Atom     2: H
  |   Hirshfeld charge        :      0.02530302
  |   Free atom volume        :     10.44207651
  |   Hirshfeld volume        :     15.87099091
  |   Hirshfeld dipole vector :      0.02449808      -0.04084267       0.04162534
  |   Hirshfeld dipole moment :      0.06325305
  |   Hirshfeld second moments:     -0.07392522       0.01391540      -0.01037502
  |                                  0.01391540      -0.10326418       0.02772612
  |                                 -0.01037502       0.02772612      -0.06870415
  ----------------------------------------------------------------------
  | Atom     3: H
  |   Hirshfeld charge        :      0.11182339
  |   Free atom volume        :     10.44207651
  |   Hirshfeld volume        :     12.24150515
  |   Hirshfeld dipole vector :      0.03597942       0.00532538       0.02167922
  |   Hirshfeld dipole moment :      0.04234226
  |   Hirshfeld second moments:     -0.00240092      -0.00594499      -0.00161665
  |                                 -0.00594499      -0.00218526       0.01180886
  |                                 -0.00161665       0.01180886       0.01300619
  ----------------------------------------------------------------------
  | Atom     4: H
  |   Hirshfeld charge        :      0.09598744
  |   Free atom volume        :     10.44207651
  |   Hirshfeld volume        :     10.44042836
  |   Hirshfeld dipole vector :     -0.00691077      -0.00175581       0.02408086
  |   Hirshfeld dipole moment :      0.02511432
  |   Hirshfeld second moments:      0.03978976       0.01491227       0.00185992
  |                                  0.01491227       0.03880083       0.00518730
  |                                  0.00185992       0.00518730       0.00769158
  ----------------------------------------------------------------------
  | Atom     5: O
  |   Hirshfeld charge        :     -0.22384355
  |   Free atom volume        :     23.95238533
  |   Hirshfeld volume        :     22.09186263
  |   Hirshfeld dipole vector :     -0.02584336       0.02417185       0.00021400
  |   Hirshfeld dipole moment :      0.03538648
  |   Hirshfeld second moments:      0.02424274       0.05359814      -0.01301612
  |                                  0.05359814       0.03495657       0.01825820
  |                                 -0.01301612       0.01825820       0.05240167
  ----------------------------------------------------------------------
  | Atom     6: H
  |   Hirshfeld charge        :      0.12834633
  |   Free atom volume        :     10.44207651
  |   Hirshfeld volume        :      9.21139354
  |   Hirshfeld dipole vector :      0.02570868       0.06906262       0.04552497
  |   Hirshfeld dipole moment :      0.08662046
  |   Hirshfeld second moments:      0.06087296       0.02350395      -0.00815348
  |                                  0.02350395       0.05723987      -0.00106268
  |                                 -0.00815348      -0.00106268       0.06375381
  ----------------------------------------------------------------------
  | Atom     7: H
  |   Hirshfeld charge        :      0.13075554
  |   Free atom volume        :     10.44207651
  |   Hirshfeld volume        :     10.06654981
  |   Hirshfeld dipole vector :     -0.06492362      -0.04320886       0.01967720
  |   Hirshfeld dipole moment :      0.08043180
  |   Hirshfeld second moments:      0.03362542       0.01604444      -0.00382597
  |                                  0.01604444       0.05460950       0.01422017
  |                                 -0.00382597       0.01422017       0.05790549
  ----------------------------------------------------------------------
  | Atom     8: O
  |   Hirshfeld charge        :     -0.32149515
  |   Free atom volume        :     23.95238533
  |   Hirshfeld volume        :     23.44956919
  |   Hirshfeld dipole vector :      0.01379681       0.02324201       0.07410024
  |   Hirshfeld dipole moment :      0.07887578
  |   Hirshfeld second moments:      0.02358455       0.05995138      -0.02208490
  |                                  0.05995138      -0.03483196      -0.00633004
  |                                 -0.02208490      -0.00633004      -0.03524299
  ----------------------------------------------------------------------
  | Atom     9: H
  |   Hirshfeld charge        :      0.13279772
  |   Free atom volume        :     10.44207651
  |   Hirshfeld volume        :      7.94006832
  |   Hirshfeld dipole vector :      0.09469743       0.06725065       0.03626721
  |   Hirshfeld dipole moment :      0.12167812
  |   Hirshfeld second moments:      0.09586529       0.01618485      -0.01431668
  |                                  0.01618485       0.07299687      -0.00945918
  |                                 -0.01431668      -0.00945918       0.08492057
  ----------------------------------------------------------------------
  | Atom    10: H
  |   Hirshfeld charge        :      0.10680658
  |   Free atom volume        :     10.44207651
  |   Hirshfeld volume        :      8.83164769
  |   Hirshfeld dipole vector :     -0.05713742      -0.02518634       0.07414897
  |   Hirshfeld dipole moment :      0.09693867
  |   Hirshfeld second moments:      0.07031876       0.02122228       0.00965586
  |                                  0.02122228       0.06114019       0.00345734
  |                                  0.00965586       0.00345734       0.05425926
  ----------------------------------------------------------------------
  | Atom    11: O
  |   Hirshfeld charge        :     -0.31059120
  |   Free atom volume        :     23.95238533
  |   Hirshfeld volume        :     23.12857008
  |   Hirshfeld dipole vector :     -0.00117152       0.06806378      -0.00510268
  |   Hirshfeld dipole moment :      0.06826484
  |   Hirshfeld second moments:     -0.01951111      -0.02264612      -0.06454282
  |                                 -0.02264612      -0.01696661      -0.00194542
  |                                 -0.06454282      -0.00194542       0.00587546
  ----------------------------------------------------------------------
  | Atom    12: H
  |   Hirshfeld charge        :      0.12975616
  |   Free atom volume        :     10.44207651
  |   Hirshfeld volume        :      7.37435795
  |   Hirshfeld dipole vector :     -0.06147829       0.08675915       0.06380796
  |   Hirshfeld dipole moment :      0.12400882
  |   Hirshfeld second moments:      0.09056857      -0.00090642      -0.02116280
  |                                 -0.00090642       0.08889906      -0.00776523
  |                                 -0.02116280      -0.00776523       0.10262220
  ----------------------------------------------------------------------
  | Atom    13: H
  |   Hirshfeld charge        :      0.12206518
  |   Free atom volume        :     10.44207651
  |   Hirshfeld volume        :      8.98814102
  |   Hirshfeld dipole vector :      0.04474639       0.06313108      -0.06218000
  |   Hirshfeld dipole moment :      0.09926794
  |   Hirshfeld second moments:      0.06166623      -0.01649103      -0.00625352
  |                                 -0.01649103       0.07797919      -0.00874267
  |                                 -0.00625352      -0.00874267       0.04636820
  ----------------------------------------------------------------------


------------------------------------------------------------------------------
  Final output of selected total energy values:

  The following output summarizes some interesting total energy values
  at the end of a run (AFTER all relaxation, molecular dynamics, etc.).

  | Total energy of the DFT / Hartree-Fock s.c.f. calculation      :          -8345.759306815 eV
  | Final zero-broadening corrected energy (caution - metals only) :          -8345.762127763 eV
  | For reference only, the value of 1 Hartree used in FHI-aims is :             27.211384500 eV

  Before relying on these values, please be sure to understand exactly which
  total energy value is referred to by a given number. Different objects may
  all carry the same name 'total energy'. Definitions:

  Total energy of the DFT / Hartree-Fock s.c.f. calculation:
  | Note that this energy does not include ANY quantities calculated after the
  | s.c.f. cycle, in particular not ANY RPA, MP2, etc. many-body perturbation terms.

  Final zero-broadening corrected energy:
  | For metallic systems only, a broadening of the occupation numbers at the Fermi
  | level can be extrapolated back to zero broadening by an electron-gas inspired
  | formula. For all systems that are not real metals, this value can be
  | meaningless and should be avoided.

------------------------------------------------------------------------------

------------------------------------------------------------
          Leaving FHI-aims.
          Date     :  20150727, Time     :  123108.408

          Computational steps:
          | Number of self-consistency cycles          :           15

          Detailed time accounting                     :  max(cpu_time)    wall_clock(cpu1)
          | Total time                                 :       27.256 s          27.290 s
          | Preparation time                           :        0.171 s           0.666 s
          | Grid partitioning                          :        0.119 s           0.120 s
          | Preloading free-atom quantities on grid    :        0.014 s           0.013 s
          | Free-atom superposition energy             :        0.051 s           0.052 s
          | Total time for integrations                :       10.194 s          10.195 s
          | Total time for solution of K.-S. equations :        0.677 s           0.676 s
          | Total time for density & force components  :       10.253 s          10.253 s
          | Total time for mixing                      :        0.161 s           0.163 s
          | Total time for Hartree multipole update    :        0.061 s           0.069 s
          | Total time for Hartree multipole sum       :        4.819 s           4.819 s
          | Total time for total energy evaluation     :        0.008 s           0.006 s
          | Total time for scaled ZORA corrections     :        0.000 s           0.000 s
          | Total time for TS (2009) vdW correction    :        0.039 s           0.039 s

          Have a nice day.
------------------------------------------------------------
