  MPI-parallelism will be employed.
------------------------------------------------------------
          Invoking FHI-aims ...
          Version 081213
          Compiled on 2013/08/29 at 17:41:06 on host generoso.

          When using FHI-aims, please cite the following reference:

          Volker Blum, Ralf Gehrke, Felix Hanke, Paula Havu,
          Ville Havu, Xinguo Ren, Karsten Reuter, and Matthias Scheffler,
          'Ab Initio Molecular Simulations with Numeric Atom-Centered Orbitals: FHI-aims',
          Computer Physics Communications 180, 2175-2196 (2009)

          For any questions about FHI-aims, please visit the aimsclub website
          with its forums and wiki. Contributions to both the forums and the
          wiki are warmly encouraged - they are for you, and everyone is welcome there.

------------------------------------------------------------

  Date     :  20150727, Time     :  125643.523
  Time zero on CPU 1             :   0.459920000000000E-01  s.
  Internal wall clock time zero  :           207233803.523  s.

  Using        8 parallel tasks.
  Task        0 on host gen59 reporting.
  Task        1 on host gen59 reporting.
  Task        2 on host gen59 reporting.
  Task        3 on host gen59 reporting.
  Task        4 on host gen59 reporting.
  Task        5 on host gen59 reporting.
  Task        6 on host gen59 reporting.
  Task        7 on host gen59 reporting.

  Performing system and environment tests:
  | Environment variable OMP_NUM_THREADS correctly set to 1.
  | Checking for scalapack...
  | No scalapack compiled in.

  Obtaining array dimensions for all initial allocations:
  
  -----------------------------------------------------------------------
  Parsing control.in (first pass over file, find array dimensions only).
  The contents of control.in will be repeated verbatim below
  unless switched off by setting 'verbatim_writeout .false.' .
  in the first line of control.in .
  -----------------------------------------------------------------------
  
  #########################################################################################
  #
  #  Volker Blum, FHI 2008 : Test run input file control.in
  #
  #########################################################################################
  #
  #  Physical model
  #
    xc                 rpbe
    spin               none
    relativistic       atomic_zora scalar
    charge             0.
   vdw_correction_hirshfeld
  #
  #  SCF convergence
  #
    occupation_type    gaussian 0.01
    mixer              pulay
      n_max_pulay        10
      charge_mix_param   0.1
    sc_accuracy_rho    5E-5
    sc_accuracy_eev    5E-3
    sc_accuracy_etot   5E-6
    sc_iter_limit      3000
  #
  #  Eigenvalue solver
  #
    KS_method          lapack
      empty_states       8
      basis_threshold    0.e-5
  #
  #  Efficiency
  #
  #   all previous settings are now default, except stratmann still
  #   undecided. Continue to handle stratmann with care, if at all.
  #
  #  partition_type stratmann
    partition_type rho_r2
  #  hartree_partition_type stratmann
  #
  #  Oprions for large clusters (100's of atoms: memory saving / better scaling)
  #
  # for periodic systems:
  #
    density_update_method orbital
    packed_matrix_format none
  #  k_grid 6 6 6
  #  output k_eigenvalue 1
  #  distributed_spline_storage .true.
  #
  #  Relaxation
  #
  #  relax_geometry   bfgs 5.e-3
    sc_accuracy_forces 5.E-4
    final_forces_cleaned .true.
  #
  #  Output options
  #
  #  output mulliken
    output Hirshfeld
  #  output dipole
  
  #harmonic_length_scale 0.001
  
  ################################################################################
  #
  #  FHI-aims code project
  #  VB, Fritz-Haber Institut, 2007
  #
  #  Suggested "safe" defaults for H atom (to be pasted into control.in file)
  #  Basis constructed for a non-relativistic H2 molecule using the
  #  PW-LDA functional.
  #
  ################################################################################
    species        H
  #     global species definitions
      nucleus             1
      cut_pot             4.0  2.0  1.0
      cut_free_atom       finite 8.0
      logarithmic         0.00010000 100.00  1.0123
      basis_dep_cutoff    1d-4  # 1d-4 is safe default - please check 5d-4 if you wish!
      radial_base         24 7.0
      radial_multiplier   2
      angular_grids       specified
        division   0.2783  110
        division   0.3822  194
        division   0.5626  302
  #      division   0.5922  434
  #      division   0.6227  590
  #      division   0.7206  770
        outer_grid  302
      l_hartree           4
  ################################################################################
  #
  #  Definition of "minimal" basis
  #
  ################################################################################
  #     valence basis states
      valence      1  s   1.
  #     ion occupancy
      ion_occ      1  s   0.5
  ################################################################################
  #
  #  Suggested additional basis functions. For production calculations,
  #  uncomment them one after another (the most important basis functions are
  #  listed first).
  #
  ################################################################################
  #  "First tier" - improvements: -1014.90 meV to -62.69 meV
       hydro 2 s 2.1
       hydro 2 p 3.5
  #  "Second tier" - improvements: -12.89 meV to -1.83 meV
       hydro 1 s 0.85
       hydro 2 p 3.7
       hydro 2 s 1.2
       hydro 3 d 7
  #  "Third tier" - improvements: -0.25 meV to -0.12 meV
  #     hydro 4 f 11.2
  #     hydro 3 p 4.8
  #     hydro 4 d 9
  #     hydro 3 s 3.2
  
  ################################################################################
  #
  #  FHI-aims code project
  #  VB, Fritz-Haber Institut, 2007
  #
  #  Suggested "safe" defaults for O atom (to be pasted into control.in file)
  #  All values have been tested for a non-relativistic, non-spinpolarized O2
  #  molecule using the PW-LDA functional. Validity for PBE is expected.
  #
  #  Constructed for dimers: 1.0 A, 1.208 A, 1.5 A, 2.0 A, 3.0 A
  #
  ################################################################################
    species        O
  #     global species definitions
      nucleus             8
      mass                15.9994
      l_hartree           4
      cut_pot             4.0  2.0  1.0
      cut_free_atom       finite 8.0
      basis_dep_cutoff    1d-4  # 1d-4 is safe default - please check 5d-4 if you wish!
      logarithmic         0.00010000 100.00  1.0123
      radial_base         36 7.0
      radial_multiplier   2
       angular_grids specified
        division   0.4087  110
        division   0.5181  194
        division   0.6184  302
  #      division   0.7315  434
  #      division   0.7934  590
  #      division   0.9656  770
  #      division   1.4041  974
  #      outer_grid 974
        outer_grid 302
  ################################################################################
  #
  #  Definition of "minimal" basis
  #
  ################################################################################
  #     valence basis states
      valence      2  s   2.
      valence      2  p   4.
  #     ion occupancy
      ion_occ      2  s   1.
      ion_occ      2  p   3.
  ################################################################################
  #
  #  Suggested additional basis functions. For production calculations,
  #  uncomment them one after another (the most important basis functions are
  #  listed first).
  #
  ################################################################################
  #  "First tier" - improvements: -699.05 meV to -159.38 meV
       hydro 2 p 1.8
       hydro 3 d 7.6
       hydro 3 s 6.4
  #  "Second tier" - improvements: -49.91 meV to -5.39 meV
       hydro 4 f 11.6
       hydro 3 p 6.2
       hydro 3 d 5.6
       hydro 5 g 17.6
       hydro 1 s 0.75
  #  "Third tier" - improvements: -2.83 meV to -0.50 meV
  #     ionic 2 p auto
  #     hydro 4 f 10.8
  #     hydro 4 d 4.7
  #     hydro 2 s 6.8
  #  "Fourth tier" - improvements: -0.40 meV to -0.12 meV
  #     hydro 3 p 5
  #     hydro 3 s 3.3
  #     hydro 5 g 15.6
  #     hydro 4 f 17.6
  #     hydro 4 d 14
  # Further basis functions - -0.08 meV and below
  #     hydro 3 s 2.1
  #     hydro 4 d 11.6
  #     hydro 3 p 16
  #     hydro 2 s 17.2
  
  
  -----------------------------------------------------------------------
  Completed first pass over input file control.in .
  -----------------------------------------------------------------------
  
  
  -----------------------------------------------------------------------
  Parsing geometry.in (first pass over file, find array dimensions only).
  The contents of geometry.in will be repeated verbatim below
  unless switched off by setting 'verbatim_writeout .false.' .
  in the first line of geometry.in .
  -----------------------------------------------------------------------
  
  atom      -4.053030000      0.065001000     -1.525160000  O
  atom      -4.566710000      0.974813000     -1.912820000  H
  atom      -3.067820000      0.330172000     -1.477310000  H
  atom      -4.370360000     -0.049164000     -0.572274000  H
  atom      -1.645860000      0.870179000     -1.502250000  O
  atom      -1.568890000      1.501730000     -0.721051000  H
  atom      -0.824432000      0.282220000     -1.377720000  H
  atom      -3.818880000      2.024990000      2.187990000  O
  atom      -3.690880000      1.961360000      3.202150000  H
  atom      -4.546490000      2.751300000      2.045370000  H
  atom      -4.066610000      4.258280000     -0.900064000  O
  atom      -3.224110000      3.876870000     -0.569443000  H
  atom      -3.737450000      5.116530000     -1.322720000  H
  
  -----------------------------------------------------------------------
  Completed first pass over input file geometry.in .
  -----------------------------------------------------------------------
  
 
  Basic array size parameters: 
  | Number of species                 :        2
  | Number of atoms                   :       13
  | Max. basis fn. angular momentum   :        4
  | Max. atomic/ionic basis occupied n:        2
  | Max. number of basis fn. types    :        2
  | Max. radial fns per species/type  :        8
  | Max. logarithmic grid size        :     1301
  | Max. radial integration grid size :       73
  | Max. angular integration grid size:      302
  | Max. angular grid division number :        8
  | Radial grid for Hartree potential :     1301
  | Number of spin channels           :        1

------------------------------------------------------------
          Reading file control.in.
------------------------------------------------------------
  XC: Using RPBE gradient-corrected functionals.
  Spin treatment: No spin polarisation.
  Scalar relativistic treatment of kinetic energy: on-site free-atom approximation to ZORA.
  Charge =   0.000000E+00: Neutral system requested explicitly.
  Using non-empirical van der Waals correction (Hirshfeld partitioning):
  Occupation type: Gaussian broadening, width =   0.100000E-01 eV.
  Using pulay charge density mixing.
  Pulay mixing - number of memorized iterations:   10
  Charge density mixing - mixing parameter:     0.1000
  Convergence accuracy of self-consistent charge density: 0.5000E-04
  Convergence accuracy of sum of eigenvalues: 0.5000E-02
  Convergence accuracy of total energy: 0.5000E-05
  Maximum number of s.-c. iterations  :  3000
  Kohn-Sham eigenvalues and eigenfunctions calculated by lapack diagonalisation (D&C).
  Number of empty states per atom:        8
  Threshold for basis singularities: 0.0000E+00
  Partition function in integrals calculations: rho / r^2
 Using packed matrix format           0
  Convergence accuracy of forces: 0.5000E-03
  Cleaning forces before final output.
  Hirshfeld charge analysis will be performed.
 
  Reading configuration options for species H                   .
  | Found nuclear charge :   1.0000
  | Found cutoff potl. onset [A], width [A], scale factor :    4.00000    2.00000    1.00000
  | Found cutoff specification for free atom: Cutoff potential begins at    8.00000 A.
  | Found logarithmic grid data [bohr] : 0.1000E-03 0.1000E+03 0.1012E+01
  | Threshold for basis-dependent cutoff potential is   0.100000E-03
  | Found data for basic radial integration grid :    24 points, outermost radius =    7.000 A
  | Found multiplier for basic radial grid :   2
  | Found angular grid specification: user-specified.
  | Specified grid contains     4 separate shells.
  | Check grid settings after all constraints further below.
  | Found l_max for Hartree potential  :   4
  | Found free-atom valence shell :  1 s   1.000
  | No ionic wave fns used. Skipping ion_occ.
  | Found hydrogenic basis function :  2 s   2.100
  | Found hydrogenic basis function :  2 p   3.500
  | Found hydrogenic basis function :  1 s   0.850
  | Found hydrogenic basis function :  2 p   3.700
  | Found hydrogenic basis function :  2 s   1.200
  | Found hydrogenic basis function :  3 d   7.000
  Species H                   : Missing cutoff potential type.
  Defaulting to exp(1/x)/(1-x)^2 type cutoff potential.
  Species H : On-site basis accuracy parameter (for Gram-Schmidt orthonormalisation) not specified.
  Using default value basis_acc =  0.1000000E-03.
  Species H                   : Using default innermost maximum threshold i_radial=  2 for radial functions.
  Species H                   : Basic radial grid will be enhanced according to radial_multiplier =   2, to contain    49 grid points.
 
  Reading configuration options for species O                   .
  | Found nuclear charge :   8.0000
  | Found atomic mass :    15.9994000000000      amu
  | Found l_max for Hartree potential  :   4
  | Found cutoff potl. onset [A], width [A], scale factor :    4.00000    2.00000    1.00000
  | Found cutoff specification for free atom: Cutoff potential begins at    8.00000 A.
  | Threshold for basis-dependent cutoff potential is   0.100000E-03
  | Found logarithmic grid data [bohr] : 0.1000E-03 0.1000E+03 0.1012E+01
  | Found data for basic radial integration grid :    36 points, outermost radius =    7.000 A
  | Found multiplier for basic radial grid :   2
  | Found angular grid specification: user-specified.
  | Specified grid contains     4 separate shells.
  | Check grid settings after all constraints further below.
  | Found free-atom valence shell :  2 s   2.000
  | Found free-atom valence shell :  2 p   4.000
  | No ionic wave fns used. Skipping ion_occ.
  | No ionic wave fns used. Skipping ion_occ.
  | Found hydrogenic basis function :  2 p   1.800
  | Found hydrogenic basis function :  3 d   7.600
  | Found hydrogenic basis function :  3 s   6.400
  | Found hydrogenic basis function :  4 f  11.600
  | Found hydrogenic basis function :  3 p   6.200
  | Found hydrogenic basis function :  3 d   5.600
  | Found hydrogenic basis function :  5 g  17.600
  | Found hydrogenic basis function :  1 s   0.750
  Species O                   : Missing cutoff potential type.
  Defaulting to exp(1/x)/(1-x)^2 type cutoff potential.
  Species O : On-site basis accuracy parameter (for Gram-Schmidt orthonormalisation) not specified.
  Using default value basis_acc =  0.1000000E-03.
  Species O                   : Using default innermost maximum threshold i_radial=  2 for radial functions.
  Species O                   : Basic radial grid will be enhanced according to radial_multiplier =   2, to contain    73 grid points.
 
  Finished reading input file 'control.in'. Consistency checks are next.
 
  Target number of points in a grid batch is not set. Defaulting to  100
  Method for grid partitioning is not set. Defaulting to parallel hash+maxmin partitioning.
  Batch size limit is not set. Defaulting to    200
  By default, will store active basis functions for each batch.
  If in need of memory, prune_basis_once .false. can be used to disable this option.
  communication_type for Hartree potential was not specified.
  Defaulting to calc_hartree .
  Pulay mixer: Number of initial linear mixing iterations not set.
  Defaulting to    0 iterations.
  Work space size for distributed Hartree potential not set.
  Defaulting to   0.200000E+03 MB.
  Algorithm-dependent basis array size parameters:
  | n_max_pulay                         :       10
  Geometry relaxation not requested: no relaxation will be performed.
  Handling of forces: Unphysical translation and rotation will be removed from forces.
  No accuracy limit for integral partition fn. given. Defaulting to 0.1000E-14.
  No threshold value for u(r) in integrations given. Defaulting to 0.1000E-05.
  No accuracy for occupation numbers given. Defaulting to 0.1000E-07.
  No threshold value for occupation numbers given. Defaulting to 0.0000E+00.
  No accuracy for fermi level given. Defaulting to 0.1000E-19.
  Maximum # of iterations to find E_F not set. Defaulting to  200.
  Will not use alltoall communication since running on < 1024 CPUs.
  Partitioning for Hartree potential was not defined. Using partition_type for integrals.
  | Reporting present value of keyword multip_moments_threshold  :       0.10000000E-09
  | This value may affect high angular momentum components of the Hartree potential in periodic systems.
  No q(lm)/r^(l+1) cutoff set for long-range Hartree potential.
  | Using default value of  0.100000E-09 .
  | Verify using the multipole_threshold keyword.
  Defaulting to new monopole extrapolation.
  Density update method: Loop over occupied states selected for charge density update.
------------------------------------------------------------


------------------------------------------------------------
          Reading geometry description geometry.in.
------------------------------------------------------------
  Input structure read successfully.
  The structure contains       13 atoms,  and a total of         41.000 electrons.

  Input geometry:
  | No unit cell requested.
  | Atomic structure:
  |       Atom                x [A]            y [A]            z [A]
  |    1: Species O             -4.053030         0.065001        -1.525160
  |    2: Species H             -4.566710         0.974813        -1.912820
  |    3: Species H             -3.067820         0.330172        -1.477310
  |    4: Species H             -4.370360        -0.049164        -0.572274
  |    5: Species O             -1.645860         0.870179        -1.502250
  |    6: Species H             -1.568890         1.501730        -0.721051
  |    7: Species H             -0.824432         0.282220        -1.377720
  |    8: Species O             -3.818880         2.024990         2.187990
  |    9: Species H             -3.690880         1.961360         3.202150
  |   10: Species H             -4.546490         2.751300         2.045370
  |   11: Species O             -4.066610         4.258280        -0.900064
  |   12: Species H             -3.224110         3.876870        -0.569443
  |   13: Species H             -3.737450         5.116530        -1.322720
  |

  | The smallest distance between any two atoms is         0.98213547 AA.
  |
  | The first atom of this pair is atom number                     11 .
  | The second atom of this pair is atom number                    12 .

  Structure-dependent array size parameters: 
  | Maximum number of distinct radial functions  :       18
  | Maximum number of basis functions            :      291
  | Number of Kohn-Sham states (occupied + empty):       73
------------------------------------------------------------

------------------------------------------------------------
          Preparing all fixed parts of the calculation.
------------------------------------------------------------
  Determining machine precision:
    2.225073858507201E-308
  Setting up grids for atomic and cluster calculations.

  Creating wave function, potential, and density for free atoms.

  Species: H

  List of occupied orbitals and eigenvalues:
    n    l              occ      energy [Ha]    energy [eV]
    1    0           1.0000        -0.241408        -6.5691


  Species: O

  List of occupied orbitals and eigenvalues:
    n    l              occ      energy [Ha]    energy [eV]
    1    0           2.0000       -18.944147      -515.4965
    2    0           2.0000        -0.883529       -24.0421
    2    1           4.0000        -0.330176        -8.9845

  Creating fixed part of basis set: Ionic, confined, hydrogenic.
 
  H                    hydrogenic:
 
  List of hydrogenic basis orbitals: 
    n    l      effective z      eigenvalue [eV]  inner max. [A]     outer max. [A]     outer radius [A]   
    2    0         2.100000       -14.9965           0.193241           1.317192           5.372934
    2    1         3.500000       -41.6672           0.602363           0.602363           4.056010
    1    0         0.850000        -9.8292           0.624864           0.624864           5.372934
    2    1         3.700000       -46.5653           0.573616           0.573616           3.909951
    2    0         1.200000        -4.5995           0.334977           2.228160           5.505921
    3    2         7.000000       -74.0753           0.680692           0.680692           3.769152
 
 
  O                    hydrogenic:
 
  List of hydrogenic basis orbitals: 
    n    l      effective z      eigenvalue [eV]  inner max. [A]     outer max. [A]     outer radius [A]   
    2    1         1.800000       -11.0118           1.178546           1.178546           5.432516
    3    2         7.600000       -87.3182           0.624117           0.624117           3.541422
    3    0         6.400000       -61.9209           0.061166           1.081887           4.306510
    4    3        11.600000      -114.4238           0.731621           0.731621           3.584982
    3    1         6.200000       -58.1113           0.255677           1.030255           4.306510
    3    2         5.600000       -47.4081           0.847222           0.847222           4.413102
    5    4        17.600000      -168.5799           0.749730           0.749730           3.372413
    1    0         0.750000        -7.6499           0.705275           0.705275           5.366508
 

  Adding cutoff potential to free-atom effective potential.
  Creating atomic-like basis functions for current effective potential.

  Species H                   :

  List of atomic basis orbitals and eigenvalues:
    n    l      energy [Ha]    energy [eV]    outer radius [A]
    1    0        -0.241374        -6.5681       5.372934


  Species O                   :

  List of atomic basis orbitals and eigenvalues:
    n    l      energy [Ha]    energy [eV]    outer radius [A]
    1    0       -18.944147      -515.4965       1.415745
    2    0        -0.883529       -24.0421       5.048305
    2    1        -0.330173        -8.9845       5.301302

  Assembling full basis from fixed parts.
  | Species H :   atomic orbital   1 s accepted.
  | Species H :    hydro orbital   2 s accepted.
  | Species H :    hydro orbital   1 s accepted.
  | Species H :    hydro orbital   2 s accepted.
  | Species H :    hydro orbital   2 p accepted.
  | Species H :    hydro orbital   2 p accepted.
  | Species H :    hydro orbital   3 d accepted.
  | Species O :   atomic orbital   1 s accepted.
  | Species O :    hydro orbital   3 s accepted.
  | Species O :   atomic orbital   2 s accepted.
  | Species O :    hydro orbital   1 s accepted.
  | Species O :    hydro orbital   3 p accepted.
  | Species O :   atomic orbital   2 p accepted.
  | Species O :    hydro orbital   2 p accepted.
  | Species O :    hydro orbital   3 d accepted.
  | Species O :    hydro orbital   3 d accepted.
  | Species O :    hydro orbital   4 f accepted.
  | Species O :    hydro orbital   5 g accepted.
 
  Basis size parameters after reduction:
  | Total number of radial functions:       18
  | Total number of basis functions :      291
 
  Testing on-site integration grid accuracy.
  |  Species  Function  <phi|h_atom|phi> (log., in eV)  <phi|h_atom|phi> (rad., in eV)
           1        1                 -6.5683835025                 -6.5684759159
           1        2                 13.3711789951                 13.3708738703
           1        3                 23.6590910787                 23.6532055418
           1        4                 16.2963827186                 16.1870710655 ***
           1        5                 28.7627214838                 28.7627215090
           1        6                 59.5965249172                 59.5965950857
           1        7                 60.2220506392                 60.2220503827
           2        8               -515.4964576505               -515.4964530710
           2        9                 15.3030791347                 15.3030722972
           2       10                -21.7296094581                -21.7296135470
           2       11                 14.2969371730                 14.2969701621
           2       12                 21.0679693190                 21.0679697493
           2       13                 -2.3833606469                 -2.3833613176
           2       14                 13.7067136422                 13.7066766629
           2       15                 45.8013116808                 45.8013116965
           2       16                 52.2309815402                 52.2309831494
           2       17                 85.4120732416                 85.4120732763
           2       18                142.1019167745                142.1019167817
 * Note: Onsite integrals marked "***" above are less accurate than
 * onsite_accuracy_threshold =    0.03000 eV. Usually, this is harmless.
 * When in doubt, tighten the "radial" and/or "radial_multiplier" flags to check.

  Preparing densities etc. for the partition functions (integrals / Hartree potential).

  Preparations completed.
  max(cpu_time)          :      0.171 s.
  Wall clock time (cpu1) :      0.499 s.
------------------------------------------------------------

------------------------------------------------------------
          Begin self-consistency loop: Initialization.

          Date     :  20150727, Time     :  125644.050
------------------------------------------------------------

  Initializing index lists of integration centers etc. from given atomic structure:
  | Number of centers in hartree potential         :        13
  | Number of centers in hartree multipole         :        13
  | Number of centers in electron density summation:        13
  | Number of centers in basis integrals           :        13
  | Number of centers in integrals                 :        13
  Partitioning the integration grid into batches with parallel hashing+maxmin method.
  | Number of batches:     1707
  | Maximal batch size:     200
  | Minimal batch size:      52
  | Average batch size:      98.982
  | Standard deviation of batch sizes:      30.468

  Integration load balanced across     8 MPI tasks.
  Work distribution over tasks is as follows:
  Task     0 has      21074 integration points.
  Task     1 has      21082 integration points.
  Task     2 has      21107 integration points.
  Task     3 has      21106 integration points.
  Task     4 has      21078 integration points.
  Task     5 has      21184 integration points.
  Task     6 has      21163 integration points.
  Task     7 has      21168 integration points.
  Initializing partition tables, free-atom densities, potentials, etc. across the integration grid (initialize_grid_storage).
  | Net number of integration points:   168962
  | of which are non-zero points    :   168418
  Obtaining max. number of non-zero basis functions in each batch (get_n_compute_maxes).
  | Maximal number of non-zero basis functions:      288 in task     0
  | Maximal number of non-zero basis functions:      288 in task     1
  | Maximal number of non-zero basis functions:      289 in task     2
  | Maximal number of non-zero basis functions:      288 in task     3
  | Maximal number of non-zero basis functions:      288 in task     4
  | Maximal number of non-zero basis functions:      289 in task     5
  | Maximal number of non-zero basis functions:      288 in task     6
  | Maximal number of non-zero basis functions:      288 in task     7
  Integrating Hamiltonian matrix: batch-based integration.
  Time summed over all CPUs for integration: real work        4.816 s, elapsed        4.933 s
  Integrating overlap matrix.
  Time summed over all CPUs for integration: real work        2.554 s, elapsed        2.629 s

  Updating Kohn-Sham eigenvalues, eigenvectors, occupation numbers, and Fermi level.
  Solving generalized eigenproblem
  Updating Kohn-Sham eigenvalues and eigenfunctions.
  Transforming overlap matrix and checking for singularities.
  Overlap matrix is nonsingular:
  | Lowest eigenvalue:  0.287152E-03
  Solving real generalised eigenvalue problem by standard LAPACK (fast)
  Determining occupation numbers for Kohn-Sham eigenstates.
  | Chemical potential (Fermi level) in eV                 : -.29926132E+01
  | Error in electron count due to remaining E_F inaccuracy: -.14495072E-11
  | Maximum occupation number of highest empty state:  0.00E+00

  Writing Kohn-Sham eigenvalues.

  State    Occupation    Eigenvalue [Ha]    Eigenvalue [eV]
      1       2.00000         -19.064919         -518.78284
      2       2.00000         -19.042484         -518.17235
      3       2.00000         -19.040030         -518.10558
      4       2.00000         -19.028697         -517.79719
      5       2.00000          -1.122290          -30.53906
      6       2.00000          -1.083066          -29.47173
      7       2.00000          -1.081768          -29.43641
      8       2.00000          -1.060089          -28.84649
      9       2.00000          -0.639307          -17.39642
     10       2.00000          -0.604248          -16.44242
     11       2.00000          -0.603391          -16.41911
     12       2.00000          -0.600859          -16.35022
     13       2.00000          -0.590393          -16.06540
     14       2.00000          -0.515348          -14.02333
     15       2.00000          -0.504875          -13.73833
     16       2.00000          -0.488174          -13.28389
     17       2.00000          -0.485869          -13.22116
     18       2.00000          -0.435871          -11.86065
     19       2.00000          -0.426958          -11.61811
     20       2.00000          -0.417453          -11.35948
     21       1.00000          -0.109977           -2.99261
     22       0.00000          -0.076825           -2.09051
     23       0.00000          -0.068882           -1.87437
     24       0.00000          -0.060245           -1.63936
     25       0.00000          -0.025260           -0.68737
     26       0.00000          -0.019195           -0.52232
     27       0.00000          -0.012353           -0.33615
     28       0.00000           0.030456            0.82876
     29       0.00000           0.045994            1.25156
     30       0.00000           0.061487            1.67313
     31       0.00000           0.069841            1.90047
     32       0.00000           0.082934            2.25676
     33       0.00000           0.091419            2.48763
     34       0.00000           0.100425            2.73270
     35       0.00000           0.101881            2.77232
     36       0.00000           0.108478            2.95184
     37       0.00000           0.110331            3.00226
     38       0.00000           0.129749            3.53065
     39       0.00000           0.137089            3.73040
     40       0.00000           0.142376            3.87426
     41       0.00000           0.157430            4.28390
     42       0.00000           0.162635            4.42552
     43       0.00000           0.178321            4.85237
     44       0.00000           0.204961            5.57728
     45       0.00000           0.219387            5.96984
     46       0.00000           0.238866            6.49986
     47       0.00000           0.244346            6.64899
     48       0.00000           0.262778            7.15055
     49       0.00000           0.276951            7.53623
     50       0.00000           0.301171            8.19528
     51       0.00000           0.330429            8.99142
     52       0.00000           0.339257            9.23165
     53       0.00000           0.354014            9.63321
     54       0.00000           0.366313            9.96788
     55       0.00000           0.367411            9.99777
     56       0.00000           0.386386           10.51410
     57       0.00000           0.388150           10.56209
     58       0.00000           0.405414           11.03187
     59       0.00000           0.414980           11.29218
     60       0.00000           0.425223           11.57090
     61       0.00000           0.432975           11.78184
     62       0.00000           0.449971           12.24435
     63       0.00000           0.472007           12.84397
     64       0.00000           0.494642           13.45991
     65       0.00000           0.504305           13.72282
     66       0.00000           0.511036           13.90599
     67       0.00000           0.532493           14.48988
     68       0.00000           0.551763           15.01424
     69       0.00000           0.563594           15.33619
     70       0.00000           0.613016           16.68101
     71       0.00000           0.640669           17.43350
     72       0.00000           0.702301           19.11057
     73       0.00000           0.733813           19.96808

  Highest occupied state (VBM) at    -11.35947951 eV
  | Occupation number:      2.00000000

  Lowest unoccupied state (CBM) at    -2.99261320 eV
  | Occupation number:      1.00000000

  Overall HOMO-LUMO gap:      8.36686630 eV.
  Calculating total energy contributions from superposition of free atom densities.

  Total energy components:
  | Sum of eigenvalues            :        -173.78215138 Ha       -4728.85294051 eV
  | XC energy correction          :         -36.74317783 Ha        -999.83273964 eV
  | XC potential correction       :          46.94848096 Ha        1277.53316718 eV
  | Free-atom electrostatic energy:        -143.32904728 Ha       -3900.18181549 eV
  | Hartree energy correction     :           0.00000000 Ha           0.00000000 eV
  | van der Waals energy corr.    :           0.00000000 Ha           0.00000000 eV
  | Entropy correction            :          -0.00010367 Ha          -0.00282095 eV
  | ---------------------------
  | Total energy                  :        -306.90589553 Ha       -8351.33432847 eV
  | Total energy, T -> 0          :        -306.90599919 Ha       -8351.33714942 eV  <-- do not rely on this value for anything but (periodic) metals
  | Electronic free energy        :        -306.90610286 Ha       -8351.33997037 eV

  Derived energy quantities:
  | Kinetic energy                :         303.88626104 Ha        8269.16589344 eV
  | Electrostatic energy          :        -574.04897874 Ha      -15620.66748227 eV
  | Energy correction for multipole
  | error in Hartree potential    :           0.00000000 Ha           0.00000000 eV
  | Sum of eigenvalues per atom                           :        -363.75791850 eV
  | Total energy (T->0) per atom                          :        -642.41054996 eV  <-- do not rely on this value for anything but (periodic) metals
  | Electronic free energy per atom                       :        -642.41076695 eV
  Initialize hartree_potential_storage
  Max. number of atoms included in rho_multipole:           13

  End scf initialization - timings             :  max(cpu_time)    wall_clock(cpu1)
  | Time for scf. initialization               :        1.399 s           1.398 s
  | Boundary condition initialization          :        0.000 s           0.000 s
  | Integration                                :        0.948 s           0.948 s
  | Solution of K.-S. eqns.                    :        0.135 s           0.135 s
  | Grid partitioning                          :        0.149 s           0.148 s
  | Preloading free-atom quantities on grid    :        0.014 s           0.013 s
  | Free-atom superposition energy             :        0.052 s           0.052 s
  | Total energy evaluation                    :        0.000 s           0.000 s
------------------------------------------------------------

------------------------------------------------------------
          Begin self-consistency iteration #    1

  Date     :  20150727, Time     :  125645.448
------------------------------------------------------------
  Evaluating new KS density.
  Integration grid: deviation in total charge (<rho> - N_e) =  -1.435296E-12
  Pulay mixing of updated and previous charge densities.

  Evaluating partitioned Hartree potential by multipole expansion.
  | Analytical far-field extrapolation by fixed multipoles:
  | Hartree multipole sum: apparent total charge =  -0.104882E-05
  Summing up the Hartree potential.
  Time summed over all CPUs for potential: real work        1.919 s, elapsed        1.935 s
  | RMS charge density error from multipole expansion :   0.139802E-02

  Integrating Hamiltonian matrix: batch-based integration.
  Time summed over all CPUs for integration: real work        4.796 s, elapsed        4.908 s

  Updating Kohn-Sham eigenvalues, eigenvectors, occupation numbers, and Fermi level.
  Solving generalized eigenproblem
  Updating Kohn-Sham eigenvalues and eigenfunctions.
  Solving real generalised eigenvalue problem by standard LAPACK (fast)
  Determining occupation numbers for Kohn-Sham eigenstates.
  | Chemical potential (Fermi level) in eV                 : -.27990373E+01
  | Error in electron count due to remaining E_F inaccuracy: -.12789769E-12
  | Maximum occupation number of highest empty state:  0.00E+00

  Writing Kohn-Sham eigenvalues.

  State    Occupation    Eigenvalue [Ha]    Eigenvalue [eV]
      1       2.00000         -19.013776         -517.39118
      2       2.00000         -18.976432         -516.37498
      3       2.00000         -18.959605         -515.91709
      4       2.00000         -18.952326         -515.71904
      5       2.00000          -1.098498          -29.89165
      6       2.00000          -1.050554          -28.58702
      7       2.00000          -1.041842          -28.34997
      8       2.00000          -1.021318          -27.79146
      9       2.00000          -0.618221          -16.82266
     10       2.00000          -0.583408          -15.87533
     11       2.00000          -0.575861          -15.66997
     12       2.00000          -0.567760          -15.44954
     13       2.00000          -0.557834          -15.17944
     14       2.00000          -0.486623          -13.24169
     15       2.00000          -0.464007          -12.62628
     16       2.00000          -0.460064          -12.51898
     17       2.00000          -0.449596          -12.23414
     18       2.00000          -0.403146          -10.97017
     19       2.00000          -0.383987          -10.44881
     20       2.00000          -0.376918          -10.25645
     21       1.00000          -0.102863           -2.79904
     22       0.00000          -0.068803           -1.87222
     23       0.00000          -0.061639           -1.67728
     24       0.00000          -0.052132           -1.41858
     25       0.00000          -0.018753           -0.51031
     26       0.00000          -0.011185           -0.30436
     27       0.00000          -0.002920           -0.07945
     28       0.00000           0.040217            1.09436
     29       0.00000           0.050181            1.36549
     30       0.00000           0.065216            1.77462
     31       0.00000           0.074629            2.03077
     32       0.00000           0.088404            2.40559
     33       0.00000           0.099449            2.70615
     34       0.00000           0.107005            2.91174
     35       0.00000           0.108581            2.95463
     36       0.00000           0.114977            3.12867
     37       0.00000           0.117703            3.20287
     38       0.00000           0.141048            3.83811
     39       0.00000           0.144752            3.93891
     40       0.00000           0.150390            4.09231
     41       0.00000           0.166182            4.52203
     42       0.00000           0.170558            4.64112
     43       0.00000           0.185830            5.05669
     44       0.00000           0.212308            5.77720
     45       0.00000           0.226537            6.16438
     46       0.00000           0.245523            6.68103
     47       0.00000           0.250431            6.81457
     48       0.00000           0.268357            7.30236
     49       0.00000           0.284744            7.74829
     50       0.00000           0.306311            8.33514
     51       0.00000           0.337556            9.18536
     52       0.00000           0.345448            9.40012
     53       0.00000           0.361410            9.83447
     54       0.00000           0.372650           10.14031
     55       0.00000           0.374129           10.18057
     56       0.00000           0.393812           10.71618
     57       0.00000           0.395377           10.75876
     58       0.00000           0.412808           11.23308
     59       0.00000           0.422921           11.50827
     60       0.00000           0.434019           11.81026
     61       0.00000           0.440412           11.98421
     62       0.00000           0.458887           12.48694
     63       0.00000           0.478441           13.01904
     64       0.00000           0.502930           13.68543
     65       0.00000           0.513649           13.97709
     66       0.00000           0.523357           14.24126
     67       0.00000           0.543818           14.79803
     68       0.00000           0.560261           15.24547
     69       0.00000           0.572854           15.58816
     70       0.00000           0.619967           16.87015
     71       0.00000           0.650190           17.69258
     72       0.00000           0.713210           19.40744
     73       0.00000           0.744723           20.26495

  Highest occupied state (VBM) at    -10.25644742 eV
  | Occupation number:      2.00000000

  Lowest unoccupied state (CBM) at    -2.79903730 eV
  | Occupation number:      1.00000000

  Overall HOMO-LUMO gap:      7.45741012 eV.

  Total energy components:
  | Sum of eigenvalues            :        -172.18641330 Ha       -4685.43069798 eV
  | XC energy correction          :         -36.91573186 Ha       -1004.52817375 eV
  | XC potential correction       :          47.17442043 Ha        1283.68129283 eV
  | Free-atom electrostatic energy:        -143.32904728 Ha       -3900.18181549 eV
  | Hartree energy correction     :          -1.55215835 Ha         -42.23637765 eV
  | van der Waals energy corr.    :           0.00000000 Ha           0.00000000 eV
  | Entropy correction            :          -0.00010367 Ha          -0.00282095 eV
  | ---------------------------
  | Total energy                  :        -306.80893036 Ha       -8348.69577206 eV
  | Total energy, T -> 0          :        -306.80903403 Ha       -8348.69859300 eV  <-- do not rely on this value for anything but (periodic) metals
  | Electronic free energy        :        -306.80913770 Ha       -8348.70141395 eV

  Derived energy quantities:
  | Kinetic energy                :         304.92627053 Ha        8297.46599146 eV
  | Electrostatic energy          :        -574.81946903 Ha      -15641.63358977 eV
  | Energy correction for multipole
  | error in Hartree potential    :           0.00019892 Ha           0.00541286 eV
  | Sum of eigenvalues per atom                           :        -360.41774600 eV
  | Total energy (T->0) per atom                          :        -642.20758408 eV  <-- do not rely on this value for anything but (periodic) metals
  | Electronic free energy per atom                       :        -642.20780107 eV

  Self-consistency convergence accuracy:
  | Change of charge density      : 0.5563E+00
  | Change of sum of eigenvalues  : 0.4342E+02 eV
  | Change of total energy        : 0.2639E+01 eV

  End self-consistency iteration #     1       :  max(cpu_time)    wall_clock(cpu1)
  | Time for this iteration                    :        1.343 s           1.342 s
  | Charge density update                      :        0.441 s           0.441 s
  | Density mixing                             :        0.003 s           0.002 s
  | Hartree multipole update                   :        0.005 s           0.005 s
  | Hartree multipole summation                :        0.242 s           0.243 s
  | Integration                                :        0.615 s           0.614 s
  | Solution of K.-S. eqns.                    :        0.036 s           0.036 s
  | Total energy evaluation                    :        0.000 s           0.000 s
------------------------------------------------------------

------------------------------------------------------------
          Begin self-consistency iteration #    2

  Date     :  20150727, Time     :  125646.791
------------------------------------------------------------
  Evaluating new KS density.
  Integration grid: deviation in total charge (<rho> - N_e) =  -1.207923E-13
  Pulay mixing of updated and previous charge densities.

  Evaluating partitioned Hartree potential by multipole expansion.
  | Analytical far-field extrapolation by fixed multipoles:
  | Hartree multipole sum: apparent total charge =  -0.324131E-05
  Summing up the Hartree potential.
  Time summed over all CPUs for potential: real work        1.918 s, elapsed        1.936 s
  | RMS charge density error from multipole expansion :   0.549642E-02

  Integrating Hamiltonian matrix: batch-based integration.
  Time summed over all CPUs for integration: real work        4.796 s, elapsed        4.907 s

  Updating Kohn-Sham eigenvalues, eigenvectors, occupation numbers, and Fermi level.
  Solving generalized eigenproblem
  Updating Kohn-Sham eigenvalues and eigenfunctions.
  Solving real generalised eigenvalue problem by standard LAPACK (fast)
  Determining occupation numbers for Kohn-Sham eigenstates.
  | Chemical potential (Fermi level) in eV                 : -.23529024E+01
  | Error in electron count due to remaining E_F inaccuracy: 0.67377215E-09
  | Maximum occupation number of highest empty state:  0.00E+00

  Highest occupied state (VBM) at     -2.35290241 eV
  | Occupation number:      1.00000000

  Lowest unoccupied state (CBM) at    -1.38268756 eV
  | Occupation number:      0.00000000

  Overall HOMO-LUMO gap:      0.97021485 eV.

  Total energy components:
  | Sum of eigenvalues            :        -168.58453614 Ha       -4587.41863361 eV
  | XC energy correction          :         -37.32448441 Ha       -1015.65089647 eV
  | XC potential correction       :          47.70855489 Ha        1298.21583109 eV
  | Free-atom electrostatic energy:        -143.32904728 Ha       -3900.18181549 eV
  | Hartree energy correction     :          -5.17486466 Ha        -140.81523191 eV
  | van der Waals energy corr.    :           0.00000000 Ha           0.00000000 eV
  | Entropy correction            :          -0.00010367 Ha          -0.00282095 eV
  | ---------------------------
  | Total energy                  :        -306.70437759 Ha       -8345.85074640 eV
  | Total energy, T -> 0          :        -306.70448126 Ha       -8345.85356735 eV  <-- do not rely on this value for anything but (periodic) metals
  | Electronic free energy        :        -306.70458492 Ha       -8345.85638830 eV

  Derived energy quantities:
  | Kinetic energy                :         306.95068673 Ha        8352.55315928 eV
  | Electrostatic energy          :        -576.33057992 Ha      -15682.75300920 eV
  | Energy correction for multipole
  | error in Hartree potential    :           0.00017318 Ha           0.00471241 eV
  | Sum of eigenvalues per atom                           :        -352.87835643 eV
  | Total energy (T->0) per atom                          :        -641.98873595 eV  <-- do not rely on this value for anything but (periodic) metals
  | Electronic free energy per atom                       :        -641.98895295 eV

  Self-consistency convergence accuracy:
  | Change of charge density      : 0.4202E+00
  | Change of sum of eigenvalues  : 0.9801E+02 eV
  | Change of total energy        : 0.2845E+01 eV

  End self-consistency iteration #     2       :  max(cpu_time)    wall_clock(cpu1)
  | Time for this iteration                    :        1.341 s           1.341 s
  | Charge density update                      :        0.438 s           0.438 s
  | Density mixing                             :        0.005 s           0.005 s
  | Hartree multipole update                   :        0.004 s           0.004 s
  | Hartree multipole summation                :        0.243 s           0.243 s
  | Integration                                :        0.615 s           0.614 s
  | Solution of K.-S. eqns.                    :        0.036 s           0.036 s
  | Total energy evaluation                    :        0.000 s           0.000 s
------------------------------------------------------------

------------------------------------------------------------
          Begin self-consistency iteration #    3

  Date     :  20150727, Time     :  125648.132
------------------------------------------------------------
  Evaluating new KS density.
  Integration grid: deviation in total charge (<rho> - N_e) =   6.737864E-10
  Pulay mixing of updated and previous charge densities.

  Evaluating partitioned Hartree potential by multipole expansion.
  | Analytical far-field extrapolation by fixed multipoles:
  | Hartree multipole sum: apparent total charge =  -0.356870E-05
  Summing up the Hartree potential.
  Time summed over all CPUs for potential: real work        1.918 s, elapsed        1.935 s
  | RMS charge density error from multipole expansion :   0.117336E-01

  Integrating Hamiltonian matrix: batch-based integration.
  Time summed over all CPUs for integration: real work        4.797 s, elapsed        4.916 s

  Updating Kohn-Sham eigenvalues, eigenvectors, occupation numbers, and Fermi level.
  Solving generalized eigenproblem
  Updating Kohn-Sham eigenvalues and eigenfunctions.
  Solving real generalised eigenvalue problem by standard LAPACK (fast)
  Determining occupation numbers for Kohn-Sham eigenstates.
  | Chemical potential (Fermi level) in eV                 : -.23322019E+01
  | Error in electron count due to remaining E_F inaccuracy: 0.74778939E-09
  | Maximum occupation number of highest empty state:  0.00E+00

  Highest occupied state (VBM) at     -2.33220190 eV
  | Occupation number:      1.00000000

  Lowest unoccupied state (CBM) at    -1.35677437 eV
  | Occupation number:      0.00000000

  Overall HOMO-LUMO gap:      0.97542754 eV.

  Total energy components:
  | Sum of eigenvalues            :        -168.91291094 Ha       -4596.35416673 eV
  | XC energy correction          :         -37.30504114 Ha       -1015.12181814 eV
  | XC potential correction       :          47.67660391 Ha        1297.34640059 eV
  | Free-atom electrostatic energy:        -143.32904728 Ha       -3900.18181549 eV
  | Hartree energy correction     :          -4.83226961 Ha        -131.49274635 eV
  | van der Waals energy corr.    :           0.00000000 Ha           0.00000000 eV
  | Entropy correction            :          -0.00010367 Ha          -0.00282095 eV
  | ---------------------------
  | Total energy                  :        -306.70266506 Ha       -8345.80414612 eV
  | Total energy, T -> 0          :        -306.70276873 Ha       -8345.80696707 eV  <-- do not rely on this value for anything but (periodic) metals
  | Electronic free energy        :        -306.70287240 Ha       -8345.80978801 eV

  Derived energy quantities:
  | Kinetic energy                :         305.44368358 Ha        8311.54551711 eV
  | Electrostatic energy          :        -574.84130751 Ha      -15642.22784508 eV
  | Energy correction for multipole
  | error in Hartree potential    :          -0.00277668 Ha          -0.07555730 eV
  | Sum of eigenvalues per atom                           :        -353.56570513 eV
  | Total energy (T->0) per atom                          :        -641.98515131 eV  <-- do not rely on this value for anything but (periodic) metals
  | Electronic free energy per atom                       :        -641.98536831 eV

  Self-consistency convergence accuracy:
  | Change of charge density      : 0.2172E+00
  | Change of sum of eigenvalues  : -.8936E+01 eV
  | Change of total energy        : 0.4660E-01 eV

  End self-consistency iteration #     3       :  max(cpu_time)    wall_clock(cpu1)
  | Time for this iteration                    :        1.338 s           1.337 s
  | Charge density update                      :        0.432 s           0.432 s
  | Density mixing                             :        0.006 s           0.006 s
  | Hartree multipole update                   :        0.005 s           0.005 s
  | Hartree multipole summation                :        0.242 s           0.242 s
  | Integration                                :        0.616 s           0.616 s
  | Solution of K.-S. eqns.                    :        0.036 s           0.036 s
  | Total energy evaluation                    :        0.000 s           0.000 s
------------------------------------------------------------

------------------------------------------------------------
          Begin self-consistency iteration #    4

  Date     :  20150727, Time     :  125649.469
------------------------------------------------------------
  Evaluating new KS density.
  Integration grid: deviation in total charge (<rho> - N_e) =   7.478107E-10
  Pulay mixing of updated and previous charge densities.

  Evaluating partitioned Hartree potential by multipole expansion.
  | Analytical far-field extrapolation by fixed multipoles:
  | Hartree multipole sum: apparent total charge =  -0.444645E-05
  Summing up the Hartree potential.
  Time summed over all CPUs for potential: real work        1.918 s, elapsed        1.934 s
  | RMS charge density error from multipole expansion :   0.147475E-01

  Integrating Hamiltonian matrix: batch-based integration.
  Time summed over all CPUs for integration: real work        4.782 s, elapsed        4.900 s

  Updating Kohn-Sham eigenvalues, eigenvectors, occupation numbers, and Fermi level.
  Solving generalized eigenproblem
  Updating Kohn-Sham eigenvalues and eigenfunctions.
  Solving real generalised eigenvalue problem by standard LAPACK (fast)
  Determining occupation numbers for Kohn-Sham eigenstates.
  | Chemical potential (Fermi level) in eV                 : -.21977361E+01
  | Error in electron count due to remaining E_F inaccuracy: 0.00000000E+00
  | Maximum occupation number of highest empty state:  0.00E+00

  Highest occupied state (VBM) at     -2.19773609 eV
  | Occupation number:      1.00000000

  Lowest unoccupied state (CBM) at    -2.19773609 eV
  | Occupation number:      1.00000000

  Overall HOMO-LUMO gap:      0.00000000 eV.

  Total energy components:
  | Sum of eigenvalues            :        -167.93946379 Ha       -4569.86532195 eV
  | XC energy correction          :         -37.43401009 Ha       -1018.63124185 eV
  | XC potential correction       :          47.84338537 Ha        1301.88475505 eV
  | Free-atom electrostatic energy:        -143.32904728 Ha       -3900.18181549 eV
  | Hartree energy correction     :          -5.83745870 Ha        -158.84533331 eV
  | van der Waals energy corr.    :           0.00000000 Ha           0.00000000 eV
  | Entropy correction            :          -0.00010367 Ha          -0.00282095 eV
  | ---------------------------
  | Total energy                  :        -306.69659449 Ha       -8345.63895756 eV
  | Total energy, T -> 0          :        -306.69669816 Ha       -8345.64177851 eV  <-- do not rely on this value for anything but (periodic) metals
  | Electronic free energy        :        -306.69680183 Ha       -8345.64459946 eV

  Derived energy quantities:
  | Kinetic energy                :         305.59619847 Ha        8315.69565835 eV
  | Electrostatic energy          :        -574.85878288 Ha      -15642.70337406 eV
  | Energy correction for multipole
  | error in Hartree potential    :          -0.00365424 Ha          -0.09943681 eV
  | Sum of eigenvalues per atom                           :        -351.52810169 eV
  | Total energy (T->0) per atom                          :        -641.97244450 eV  <-- do not rely on this value for anything but (periodic) metals
  | Electronic free energy per atom                       :        -641.97266150 eV

  Self-consistency convergence accuracy:
  | Change of charge density      : 0.1060E+00
  | Change of sum of eigenvalues  : 0.2649E+02 eV
  | Change of total energy        : 0.1652E+00 eV

  End self-consistency iteration #     4       :  max(cpu_time)    wall_clock(cpu1)
  | Time for this iteration                    :        1.337 s           1.338 s
  | Charge density update                      :        0.433 s           0.434 s
  | Density mixing                             :        0.007 s           0.007 s
  | Hartree multipole update                   :        0.005 s           0.004 s
  | Hartree multipole summation                :        0.242 s           0.243 s
  | Integration                                :        0.614 s           0.613 s
  | Solution of K.-S. eqns.                    :        0.036 s           0.036 s
  | Total energy evaluation                    :        0.000 s           0.000 s
------------------------------------------------------------

------------------------------------------------------------
          Begin self-consistency iteration #    5

  Date     :  20150727, Time     :  125650.807
------------------------------------------------------------
  Evaluating new KS density.
  Integration grid: deviation in total charge (<rho> - N_e) =   2.131628E-14
  Pulay mixing of updated and previous charge densities.

  Evaluating partitioned Hartree potential by multipole expansion.
  | Analytical far-field extrapolation by fixed multipoles:
  | Hartree multipole sum: apparent total charge =  -0.446079E-05
  Summing up the Hartree potential.
  Time summed over all CPUs for potential: real work        1.917 s, elapsed        1.935 s
  | RMS charge density error from multipole expansion :   0.151077E-01

  Integrating Hamiltonian matrix: batch-based integration.
  Time summed over all CPUs for integration: real work        4.782 s, elapsed        4.902 s

  Updating Kohn-Sham eigenvalues, eigenvectors, occupation numbers, and Fermi level.
  Solving generalized eigenproblem
  Updating Kohn-Sham eigenvalues and eigenfunctions.
  Solving real generalised eigenvalue problem by standard LAPACK (fast)
  Determining occupation numbers for Kohn-Sham eigenstates.
  | Chemical potential (Fermi level) in eV                 : -.21839696E+01
  | Error in electron count due to remaining E_F inaccuracy: -.85717033E-09
  | Maximum occupation number of highest empty state:  0.00E+00

  Highest occupied state (VBM) at     -6.78083806 eV
  | Occupation number:      2.00000000

  Lowest unoccupied state (CBM) at    -2.18396963 eV
  | Occupation number:      1.00000000

  Overall HOMO-LUMO gap:      4.59686844 eV.

  Total energy components:
  | Sum of eigenvalues            :        -167.89044787 Ha       -4568.53153097 eV
  | XC energy correction          :         -37.44122727 Ha       -1018.82763139 eV
  | XC potential correction       :          47.85238697 Ha        1302.12970115 eV
  | Free-atom electrostatic energy:        -143.32904728 Ha       -3900.18181549 eV
  | Hartree energy correction     :          -5.88816305 Ha        -160.22506886 eV
  | van der Waals energy corr.    :           0.00000000 Ha           0.00000000 eV
  | Entropy correction            :          -0.00010367 Ha          -0.00282095 eV
  | ---------------------------
  | Total energy                  :        -306.69649850 Ha       -8345.63634557 eV
  | Total energy, T -> 0          :        -306.69660217 Ha       -8345.63916651 eV  <-- do not rely on this value for anything but (periodic) metals
  | Electronic free energy        :        -306.69670584 Ha       -8345.64198746 eV

  Derived energy quantities:
  | Kinetic energy                :         305.63535900 Ha        8316.76127054 eV
  | Electrostatic energy          :        -574.89063023 Ha      -15643.56998471 eV
  | Energy correction for multipole
  | error in Hartree potential    :          -0.00372725 Ha          -0.10142360 eV
  | Sum of eigenvalues per atom                           :        -351.42550238 eV
  | Total energy (T->0) per atom                          :        -641.97224358 eV  <-- do not rely on this value for anything but (periodic) metals
  | Electronic free energy per atom                       :        -641.97246057 eV

  Self-consistency convergence accuracy:
  | Change of charge density      : 0.1859E-01
  | Change of sum of eigenvalues  : 0.1334E+01 eV
  | Change of total energy        : 0.2612E-02 eV

  End self-consistency iteration #     5       :  max(cpu_time)    wall_clock(cpu1)
  | Time for this iteration                    :        1.339 s           1.340 s
  | Charge density update                      :        0.434 s           0.434 s
  | Density mixing                             :        0.008 s           0.008 s
  | Hartree multipole update                   :        0.004 s           0.005 s
  | Hartree multipole summation                :        0.243 s           0.242 s
  | Integration                                :        0.614 s           0.614 s
  | Solution of K.-S. eqns.                    :        0.036 s           0.036 s
  | Total energy evaluation                    :        0.000 s           0.000 s
------------------------------------------------------------

------------------------------------------------------------
          Begin self-consistency iteration #    6

  Date     :  20150727, Time     :  125652.147
------------------------------------------------------------
  Evaluating new KS density.
  Integration grid: deviation in total charge (<rho> - N_e) =  -8.571632E-10
  Pulay mixing of updated and previous charge densities.

  Evaluating partitioned Hartree potential by multipole expansion.
  | Analytical far-field extrapolation by fixed multipoles:
  | Hartree multipole sum: apparent total charge =  -0.444104E-05
  Summing up the Hartree potential.
  Time summed over all CPUs for potential: real work        1.917 s, elapsed        1.934 s
  | RMS charge density error from multipole expansion :   0.152764E-01

  Integrating Hamiltonian matrix: batch-based integration.
  Time summed over all CPUs for integration: real work        4.776 s, elapsed        4.907 s

  Updating Kohn-Sham eigenvalues, eigenvectors, occupation numbers, and Fermi level.
  Solving generalized eigenproblem
  Updating Kohn-Sham eigenvalues and eigenfunctions.
  Solving real generalised eigenvalue problem by standard LAPACK (fast)
  Determining occupation numbers for Kohn-Sham eigenstates.
  | Chemical potential (Fermi level) in eV                 : -.21825789E+01
  | Error in electron count due to remaining E_F inaccuracy: -.51159077E-12
  | Maximum occupation number of highest empty state:  0.00E+00

  Highest occupied state (VBM) at     -6.78878612 eV
  | Occupation number:      2.00000000

  Lowest unoccupied state (CBM) at    -2.18257894 eV
  | Occupation number:      1.00000000

  Overall HOMO-LUMO gap:      4.60620718 eV.

  Total energy components:
  | Sum of eigenvalues            :        -167.89820753 Ha       -4568.74268206 eV
  | XC energy correction          :         -37.44121480 Ha       -1018.82729201 eV
  | XC potential correction       :          47.85214704 Ha        1302.12317218 eV
  | Free-atom electrostatic energy:        -143.32904728 Ha       -3900.18181549 eV
  | Hartree energy correction     :          -5.88018200 Ha        -160.00789335 eV
  | van der Waals energy corr.    :           0.00000000 Ha           0.00000000 eV
  | Entropy correction            :          -0.00010367 Ha          -0.00282095 eV
  | ---------------------------
  | Total energy                  :        -306.69650457 Ha       -8345.63651074 eV
  | Total energy, T -> 0          :        -306.69660824 Ha       -8345.63933169 eV  <-- do not rely on this value for anything but (periodic) metals
  | Electronic free energy        :        -306.69671191 Ha       -8345.64215263 eV

  Derived energy quantities:
  | Kinetic energy                :         305.62626310 Ha        8316.51375840 eV
  | Electrostatic energy          :        -574.88155287 Ha      -15643.32297712 eV
  | Energy correction for multipole
  | error in Hartree potential    :          -0.00377990 Ha          -0.10285639 eV
  | Sum of eigenvalues per atom                           :        -351.44174477 eV
  | Total energy (T->0) per atom                          :        -641.97225628 eV  <-- do not rely on this value for anything but (periodic) metals
  | Electronic free energy per atom                       :        -641.97247328 eV

  Self-consistency convergence accuracy:
  | Change of charge density      : 0.7434E-02
  | Change of sum of eigenvalues  : -.2112E+00 eV
  | Change of total energy        : -.1652E-03 eV

  End self-consistency iteration #     6       :  max(cpu_time)    wall_clock(cpu1)
  | Time for this iteration                    :        1.343 s           1.342 s
  | Charge density update                      :        0.435 s           0.435 s
  | Density mixing                             :        0.010 s           0.009 s
  | Hartree multipole update                   :        0.004 s           0.004 s
  | Hartree multipole summation                :        0.243 s           0.243 s
  | Integration                                :        0.614 s           0.614 s
  | Solution of K.-S. eqns.                    :        0.036 s           0.036 s
  | Total energy evaluation                    :        0.001 s           0.001 s
------------------------------------------------------------

------------------------------------------------------------
          Begin self-consistency iteration #    7

  Date     :  20150727, Time     :  125653.489
------------------------------------------------------------
  Evaluating new KS density.
  Integration grid: deviation in total charge (<rho> - N_e) =  -4.760636E-13
  Pulay mixing of updated and previous charge densities.

  Evaluating partitioned Hartree potential by multipole expansion.
  | Analytical far-field extrapolation by fixed multipoles:
  | Hartree multipole sum: apparent total charge =  -0.437667E-05
  Summing up the Hartree potential.
  Time summed over all CPUs for potential: real work        1.917 s, elapsed        1.934 s
  | RMS charge density error from multipole expansion :   0.153506E-01

  Integrating Hamiltonian matrix: batch-based integration.
  Time summed over all CPUs for integration: real work        4.772 s, elapsed        4.887 s

  Updating Kohn-Sham eigenvalues, eigenvectors, occupation numbers, and Fermi level.
  Solving generalized eigenproblem
  Updating Kohn-Sham eigenvalues and eigenfunctions.
  Solving real generalised eigenvalue problem by standard LAPACK (fast)
  Determining occupation numbers for Kohn-Sham eigenstates.
  | Chemical potential (Fermi level) in eV                 : -.21890439E+01
  | Error in electron count due to remaining E_F inaccuracy: 0.71196382E-11
  | Maximum occupation number of highest empty state:  0.00E+00

  Highest occupied state (VBM) at     -2.18904388 eV
  | Occupation number:      1.00000000

  Lowest unoccupied state (CBM) at    -1.22164438 eV
  | Occupation number:      0.00000000

  Overall HOMO-LUMO gap:      0.96739951 eV.

  Total energy components:
  | Sum of eigenvalues            :        -167.95161412 Ha       -4570.19594918 eV
  | XC energy correction          :         -37.43531016 Ha       -1018.66661861 eV
  | XC potential correction       :          47.84411543 Ha        1301.90462105 eV
  | Free-atom electrostatic energy:        -143.32904728 Ha       -3900.18181549 eV
  | Hartree energy correction     :          -5.82461907 Ha        -158.49594898 eV
  | van der Waals energy corr.    :           0.00000000 Ha           0.00000000 eV
  | Entropy correction            :          -0.00010367 Ha          -0.00282095 eV
  | ---------------------------
  | Total energy                  :        -306.69647519 Ha       -8345.63571121 eV
  | Total energy, T -> 0          :        -306.69657886 Ha       -8345.63853215 eV  <-- do not rely on this value for anything but (periodic) metals
  | Electronic free energy        :        -306.69668253 Ha       -8345.64135310 eV

  Derived energy quantities:
  | Kinetic energy                :         305.65529394 Ha        8317.30372776 eV
  | Electrostatic energy          :        -574.91645897 Ha      -15644.27282036 eV
  | Energy correction for multipole
  | error in Hartree potential    :          -0.00376287 Ha          -0.10239278 eV
  | Sum of eigenvalues per atom                           :        -351.55353455 eV
  | Total energy (T->0) per atom                          :        -641.97219478 eV  <-- do not rely on this value for anything but (periodic) metals
  | Electronic free energy per atom                       :        -641.97241178 eV

  Self-consistency convergence accuracy:
  | Change of charge density      : 0.6225E-02
  | Change of sum of eigenvalues  : -.1453E+01 eV
  | Change of total energy        : 0.7995E-03 eV

  End self-consistency iteration #     7       :  max(cpu_time)    wall_clock(cpu1)
  | Time for this iteration                    :        1.340 s           1.340 s
  | Charge density update                      :        0.435 s           0.435 s
  | Density mixing                             :        0.010 s           0.010 s
  | Hartree multipole update                   :        0.004 s           0.004 s
  | Hartree multipole summation                :        0.243 s           0.243 s
  | Integration                                :        0.612 s           0.612 s
  | Solution of K.-S. eqns.                    :        0.036 s           0.036 s
  | Total energy evaluation                    :        0.000 s           0.000 s
------------------------------------------------------------

------------------------------------------------------------
          Begin self-consistency iteration #    8

  Date     :  20150727, Time     :  125654.829
------------------------------------------------------------
  Evaluating new KS density.
  Integration grid: deviation in total charge (<rho> - N_e) =   7.119638E-12
  Pulay mixing of updated and previous charge densities.

  Evaluating partitioned Hartree potential by multipole expansion.
  | Analytical far-field extrapolation by fixed multipoles:
  | Hartree multipole sum: apparent total charge =  -0.433965E-05
  Summing up the Hartree potential.
  Time summed over all CPUs for potential: real work        1.917 s, elapsed        1.935 s
  | RMS charge density error from multipole expansion :   0.153461E-01

  Integrating Hamiltonian matrix: batch-based integration.
  Time summed over all CPUs for integration: real work        4.771 s, elapsed        4.880 s

  Updating Kohn-Sham eigenvalues, eigenvectors, occupation numbers, and Fermi level.
  Solving generalized eigenproblem
  Updating Kohn-Sham eigenvalues and eigenfunctions.
  Solving real generalised eigenvalue problem by standard LAPACK (fast)
  Determining occupation numbers for Kohn-Sham eigenstates.
  | Chemical potential (Fermi level) in eV                 : -.21965220E+01
  | Error in electron count due to remaining E_F inaccuracy: 0.50704330E-10
  | Maximum occupation number of highest empty state:  0.00E+00

  Highest occupied state (VBM) at     -2.19652195 eV
  | Occupation number:      1.00000000

  Lowest unoccupied state (CBM) at    -1.22728338 eV
  | Occupation number:      0.00000000

  Overall HOMO-LUMO gap:      0.96923857 eV.

  Total energy components:
  | Sum of eigenvalues            :        -167.97019926 Ha       -4570.70167653 eV
  | XC energy correction          :         -37.43328025 Ha       -1018.61138204 eV
  | XC potential correction       :          47.84140474 Ha        1301.83085951 eV
  | Free-atom electrostatic energy:        -143.32904728 Ha       -3900.18181549 eV
  | Hartree energy correction     :          -5.80534874 Ha        -157.97157663 eV
  | van der Waals energy corr.    :           0.00000000 Ha           0.00000000 eV
  | Entropy correction            :          -0.00010367 Ha          -0.00282095 eV
  | ---------------------------
  | Total energy                  :        -306.69647078 Ha       -8345.63559118 eV
  | Total energy, T -> 0          :        -306.69657445 Ha       -8345.63841213 eV  <-- do not rely on this value for anything but (periodic) metals
  | Electronic free energy        :        -306.69667812 Ha       -8345.64123308 eV

  Derived energy quantities:
  | Kinetic energy                :         305.66012740 Ha        8317.43525304 eV
  | Electrostatic energy          :        -574.92331793 Ha      -15644.45946218 eV
  | Energy correction for multipole
  | error in Hartree potential    :          -0.00375704 Ha          -0.10223434 eV
  | Sum of eigenvalues per atom                           :        -351.59243666 eV
  | Total energy (T->0) per atom                          :        -641.97218555 eV  <-- do not rely on this value for anything but (periodic) metals
  | Electronic free energy per atom                       :        -641.97240254 eV

  Self-consistency convergence accuracy:
  | Change of charge density      : 0.1898E-02
  | Change of sum of eigenvalues  : -.5057E+00 eV
  | Change of total energy        : 0.1200E-03 eV

  End self-consistency iteration #     8       :  max(cpu_time)    wall_clock(cpu1)
  | Time for this iteration                    :        1.341 s           1.342 s
  | Charge density update                      :        0.435 s           0.436 s
  | Density mixing                             :        0.011 s           0.011 s
  | Hartree multipole update                   :        0.004 s           0.005 s
  | Hartree multipole summation                :        0.242 s           0.242 s
  | Integration                                :        0.612 s           0.611 s
  | Solution of K.-S. eqns.                    :        0.035 s           0.036 s
  | Total energy evaluation                    :        0.000 s           0.000 s
------------------------------------------------------------

------------------------------------------------------------
          Begin self-consistency iteration #    9

  Date     :  20150727, Time     :  125656.171
------------------------------------------------------------
  Evaluating new KS density.
  Integration grid: deviation in total charge (<rho> - N_e) =   5.073986E-11
  Pulay mixing of updated and previous charge densities.

  Evaluating partitioned Hartree potential by multipole expansion.
  | Analytical far-field extrapolation by fixed multipoles:
  | Hartree multipole sum: apparent total charge =  -0.436255E-05
  Summing up the Hartree potential.
  Time summed over all CPUs for potential: real work        1.917 s, elapsed        1.934 s
  | RMS charge density error from multipole expansion :   0.153379E-01

  Integrating Hamiltonian matrix: batch-based integration.
  Time summed over all CPUs for integration: real work        4.776 s, elapsed        4.891 s

  Updating Kohn-Sham eigenvalues, eigenvectors, occupation numbers, and Fermi level.
  Solving generalized eigenproblem
  Updating Kohn-Sham eigenvalues and eigenfunctions.
  Solving real generalised eigenvalue problem by standard LAPACK (fast)
  Determining occupation numbers for Kohn-Sham eigenstates.
  | Chemical potential (Fermi level) in eV                 : -.21966456E+01
  | Error in electron count due to remaining E_F inaccuracy: 0.00000000E+00
  | Maximum occupation number of highest empty state:  0.00E+00

  Highest occupied state (VBM) at     -2.19664560 eV
  | Occupation number:      1.00000000

  Lowest unoccupied state (CBM) at    -2.19664560 eV
  | Occupation number:      1.00000000

  Overall HOMO-LUMO gap:      0.00000000 eV.

  Total energy components:
  | Sum of eigenvalues            :        -167.96773112 Ha       -4570.63451516 eV
  | XC energy correction          :         -37.43354386 Ha       -1018.61855505 eV
  | XC potential correction       :          47.84175843 Ha        1301.84048368 eV
  | Free-atom electrostatic energy:        -143.32904728 Ha       -3900.18181549 eV
  | Hartree energy correction     :          -5.80790629 Ha        -158.04117130 eV
  | van der Waals energy corr.    :           0.00000000 Ha           0.00000000 eV
  | Entropy correction            :          -0.00010367 Ha          -0.00282095 eV
  | ---------------------------
  | Total energy                  :        -306.69647012 Ha       -8345.63557332 eV
  | Total energy, T -> 0          :        -306.69657379 Ha       -8345.63839427 eV  <-- do not rely on this value for anything but (periodic) metals
  | Electronic free energy        :        -306.69667746 Ha       -8345.64121521 eV

  Derived energy quantities:
  | Kinetic energy                :         305.66440968 Ha        8317.55177986 eV
  | Electrostatic energy          :        -574.92733595 Ha      -15644.56879814 eV
  | Energy correction for multipole
  | error in Hartree potential    :          -0.00375177 Ha          -0.10209097 eV
  | Sum of eigenvalues per atom                           :        -351.58727040 eV
  | Total energy (T->0) per atom                          :        -641.97218417 eV  <-- do not rely on this value for anything but (periodic) metals
  | Electronic free energy per atom                       :        -641.97240117 eV

  Self-consistency convergence accuracy:
  | Change of charge density      : 0.4981E-03
  | Change of sum of eigenvalues  : 0.6716E-01 eV
  | Change of total energy        : 0.1786E-04 eV

  End self-consistency iteration #     9       :  max(cpu_time)    wall_clock(cpu1)
  | Time for this iteration                    :        1.343 s           1.343 s
  | Charge density update                      :        0.435 s           0.435 s
  | Density mixing                             :        0.013 s           0.012 s
  | Hartree multipole update                   :        0.004 s           0.005 s
  | Hartree multipole summation                :        0.243 s           0.242 s
  | Integration                                :        0.612 s           0.613 s
  | Solution of K.-S. eqns.                    :        0.036 s           0.035 s
  | Total energy evaluation                    :        0.000 s           0.000 s
------------------------------------------------------------

------------------------------------------------------------
          Begin self-consistency iteration #   10

  Date     :  20150727, Time     :  125657.514
------------------------------------------------------------
  Evaluating new KS density.
  Integration grid: deviation in total charge (<rho> - N_e) =   0.000000E+00
[...]
  | Electronic free energy        :        -306.69876393 Ha       -8345.69799103 eV

  Derived energy quantities:
  | Kinetic energy                :         305.66432645 Ha        8317.54951510 eV
  | Electrostatic energy          :        -574.92728464 Ha      -15644.56740188 eV
  | Energy correction for multipole
  | error in Hartree potential    :          -0.00375566 Ha          -0.10219666 eV
  | Sum of eigenvalues per atom                           :        -351.58830329 eV
  | Total energy (T->0) per atom                          :        -641.97655154 eV  <-- do not rely on this value for anything but (periodic) metals
  | Electronic free energy per atom                       :        -641.97676854 eV

  atomic forces [eV/Ang]:
  -----------------------
  atom #    1
   Hellmann-Feynman + Multipole  : -.364557E+01 -.727721E+01 -.743769E+01
   Pulay + GGA                   : 0.185428E+01 0.815650E+01 0.705656E+01
   Van der Waals               : -.698746E-02 0.328418E-02 0.241224E-02
   ----------------------------------------------------------------
   Total forces(   1)            : -.179828E+01 0.882578E+00 -.378712E+00
  atom #    2
   Hellmann-Feynman + Multipole  : 0.653062E+00 -.122565E+01 0.546857E+00
   Pulay + GGA                   : -.783975E-01 0.983176E-01 -.672049E-01
   Van der Waals               : -.297457E-02 -.105235E-02 0.788756E-03
   ----------------------------------------------------------------
   Total forces(   2)            : 0.571690E+00 -.112839E+01 0.480441E+00
  atom #    3
   Hellmann-Feynman + Multipole  : 0.937878E+00 0.133344E+00 -.462157E-02
   Pulay + GGA                   : 0.830238E-01 0.680437E-02 0.274719E-01
   Van der Waals               : -.124549E-02 0.450702E-02 0.268890E-02
   ----------------------------------------------------------------
   Total forces(   3)            : 0.101966E+01 0.144655E+00 0.255392E-01
  atom #    4
   Hellmann-Feynman + Multipole  : 0.928505E-01 0.768163E-01 -.238937E+00
   Pulay + GGA                   : -.477351E-01 -.540394E-01 0.126548E+00
   Van der Waals               : -.380972E-02 0.138845E-02 0.168265E-02
   ----------------------------------------------------------------
   Total forces(   4)            : 0.413057E-01 0.241654E-01 -.110706E+00
  atom #    5
   Hellmann-Feynman + Multipole  : -.475887E+01 0.193109E+01 -.977095E+01
   Pulay + GGA                   : 0.620566E+01 -.194439E+01 0.107732E+02
   Van der Waals               : 0.247708E-02 0.553439E-02 0.197835E-02
   ----------------------------------------------------------------
   Total forces(   5)            : 0.144927E+01 -.776189E-02 0.100418E+01
  atom #    6
   Hellmann-Feynman + Multipole  : -.170101E+00 -.541111E+00 -.778277E+00
   Pulay + GGA                   : 0.292492E-01 0.921016E-01 0.937852E-01
   Van der Waals               : 0.527276E-02 0.422859E-02 0.412915E-02
   ----------------------------------------------------------------
   Total forces(   6)            : -.135579E+00 -.444781E+00 -.680363E+00
  atom #    7
   Hellmann-Feynman + Multipole  : -.126707E+01 0.654658E+00 -.280815E+00
   Pulay + GGA                   : 0.117917E+00 -.724948E-01 0.179600E-01
   Van der Waals               : 0.183352E-03 0.159034E-02 0.837084E-03
   ----------------------------------------------------------------
   Total forces(   7)            : -.114897E+01 0.583754E+00 -.262018E+00
  atom #    8
   Hellmann-Feynman + Multipole  : 0.669450E+01 -.759948E+01 -.108301E+02
   Pulay + GGA                   : -.796353E+01 0.896762E+01 0.122509E+02
   Van der Waals               : 0.219808E-02 -.347659E-03 -.102719E-01
   ----------------------------------------------------------------
   Total forces(   8)            : -.126682E+01 0.136779E+01 0.141053E+01
  atom #    9
   Hellmann-Feynman + Multipole  : -.463093E+00 0.322881E+00 -.217966E+01
   Pulay + GGA                   : 0.224962E-01 -.356518E-02 0.142615E+00
   Van der Waals               : 0.281293E-03 -.115323E-03 -.307329E-02
   ----------------------------------------------------------------
   Total forces(   9)            : -.440316E+00 0.319200E+00 -.204012E+01
  atom #   10
   Hellmann-Feynman + Multipole  : 0.184449E+01 -.179870E+01 0.541135E+00
   Pulay + GGA                   : -.102265E+00 0.920035E-01 -.115233E-01
   Van der Waals               : 0.501717E-03 -.296212E-02 -.244319E-02
   ----------------------------------------------------------------
   Total forces(  10)            : 0.174272E+01 -.170966E+01 0.527169E+00
  atom #   11
   Hellmann-Feynman + Multipole  : -.141292E+02 -.518001E+01 0.495692E+00
   Pulay + GGA                   : 0.150853E+02 0.650009E+01 -.102567E+01
   Van der Waals               : 0.394707E-02 -.880272E-02 0.264042E-02
   ----------------------------------------------------------------
   Total forces(  11)            : 0.960036E+00 0.131128E+01 -.527342E+00
  atom #   12
   Hellmann-Feynman + Multipole  : -.484650E+00 0.446594E-01 -.835771E-01
   Pulay + GGA                   : 0.135413E+00 -.638895E-01 0.327525E-01
   Van der Waals               : -.148434E-03 -.379959E-02 -.232748E-02
   ----------------------------------------------------------------
   Total forces(  12)            : -.349385E+00 -.230297E-01 -.531521E-01
  atom #   13
   Hellmann-Feynman + Multipole  : -.694336E+00 -.143290E+01 0.677161E+00
   Pulay + GGA                   : 0.508660E-01 0.115292E+00 -.672148E-01
   Van der Waals               : 0.304328E-03 -.345322E-02 0.958361E-03
   ----------------------------------------------------------------
   Total forces(  13)            : -.643165E+00 -.132106E+01 0.610904E+00
  Timings for vdw_correction_hirshfeld (Tkatchenko-Scheffler 2009):
  | CPU time:        3.636 s, Wall clock time:        3.638 s.
  Removing unitary transformations (pure translations, rotations) from forces on atoms.
  Atomic forces before filtering:
  | Net force on center of mass :  0.215722E-02 -.125170E-02 0.635554E-02 eV/A
  | Net torque on center of mass:  -.730450E-02 0.145585E-01 -.107141E-01 eV
  Atomic forces after filtering:
  | Net force on center of mass :  0.892031E-16 0.535218E-15 -.356812E-15 eV/A
  | Net torque on center of mass:  -.377634E-15 -.330430E-15 0.755268E-15 eV
 
  Energy and forces in a compact form:
  | Total energy uncorrected      :         -0.834569234913561E+04 eV
  | Total energy corrected        :         -0.834569517008353E+04 eV  <-- do not rely on this value for anything but (periodic) metals
  | Electronic free energy        :         -0.834569799103145E+04 eV
  Total atomic forces (unitary forces cleaned) [eV/Ang]:
  |   1         -0.179785101871349E+01          0.882699491352744E+00         -0.379609428315403E+00
  |   2          0.572090808090870E+00         -0.112829923963101E+01          0.479507293732009E+00
  |   3          0.102003596137799E+01          0.144922238471072E+00          0.249445867491860E-01
  |   4          0.414930936271201E-01          0.241279540816903E-01         -0.111704807413464E+00
  |   5          0.144957287113668E+01         -0.727428163793357E-02          0.100404170865283E+01
  |   6         -0.135587670095978E+00         -0.444372453368547E+00         -0.680407078933266E+00
  |   7         -0.114860955294938E+01          0.584352566948318E+00         -0.261998629116055E+00
  |   8         -0.126771701170445E+01          0.136751802383432E+01          0.140992615738434E+01
  |   9         -0.441479306527454E+00          0.318828392439267E+00         -0.204069372235961E+01
  |  10          0.174175733620610E+01         -0.171002630731674E+01          0.526446743751535E+00
  |  11          0.959654682497804E+00          0.131132653229851E+01         -0.527756112943716E+00
  |  12         -0.349799063930680E+00         -0.228920624140447E-01         -0.533777127730453E-01
  |  13         -0.643561129015129E+00         -0.132091085505765E+01          0.610681001584668E+00
 
  ------------------------------------ 
  Start decomposition of the XC Energy 
  ------------------------------------ 
  Hartree-Fock part   :          0.000000000 Ha              0.000000000 eV
  ------------------------------------ 
  X Energy            :        -36.115568683 Ha           -982.754625870 eV
  C Energy GGA        :         -1.317943480 Ha            -35.863066795 eV
  Total XC Energy     :        -37.433512163 Ha          -1018.617692665 eV
  LDA X and C from self-consistent density 
  X Energy LDA        :        -32.523438012 Ha           -885.007776997 eV
  C Energy LDA        :         -2.670903479 Ha            -72.678981543 eV
  ------------------------------------ 
  End decomposition of the XC Energy 
  ------------------------------------ 
  Performing Hirshfeld analysis of fragment charges and moments.
  ----------------------------------------------------------------------
  | Atom     1: O
  |   Hirshfeld charge        :     -0.12120486
  |   Free atom volume        :     23.95238533
  |   Hirshfeld volume        :     22.72998109
  |   Hirshfeld dipole vector :      0.01961625       0.02658090       0.02084266
  |   Hirshfeld dipole moment :      0.03906096
  |   Hirshfeld second moments:      0.05478366      -0.00600450      -0.01244227
  |                                 -0.00600450       0.01906121      -0.02662665
  |                                 -0.01244227      -0.02662665       0.05103482
  ----------------------------------------------------------------------
  | Atom     2: H
  |   Hirshfeld charge        :      0.07678467
  |   Free atom volume        :     10.44207651
  |   Hirshfeld volume        :     12.89357388
  |   Hirshfeld dipole vector :      0.02261646       0.00435311       0.00694070
  |   Hirshfeld dipole moment :      0.02405467
  |   Hirshfeld second moments:     -0.02655969       0.02001367      -0.00543932
  |                                  0.02001367      -0.02396241       0.01172938
  |                                 -0.00543932       0.01172938      -0.01071696
  ----------------------------------------------------------------------
  | Atom     3: H
  |   Hirshfeld charge        :      0.09535126
  |   Free atom volume        :     10.44207651
  |   Hirshfeld volume        :     10.22069737
  |   Hirshfeld dipole vector :      0.01691469       0.00904442       0.00370870
  |   Hirshfeld dipole moment :      0.01953620
  |   Hirshfeld second moments:      0.01440457      -0.01233682      -0.00507287
  |                                 -0.01233682       0.03835102       0.00696023
  |                                 -0.00507287       0.00696023       0.04243002
  ----------------------------------------------------------------------
  | Atom     4: H
  |   Hirshfeld charge        :      0.11235145
  |   Free atom volume        :     10.44207651
  |   Hirshfeld volume        :     11.93204897
  |   Hirshfeld dipole vector :     -0.00182893       0.00342186       0.03764403
  |   Hirshfeld dipole moment :      0.03784345
  |   Hirshfeld second moments:      0.00762169       0.00698179       0.00318848
  |                                  0.00698179       0.01529787       0.00403803
  |                                  0.00318848       0.00403803      -0.00062436
  ----------------------------------------------------------------------
  | Atom     5: O
  |   Hirshfeld charge        :     -0.22185685
  |   Free atom volume        :     23.95238533
  |   Hirshfeld volume        :     22.76500902
  |   Hirshfeld dipole vector :     -0.00889617      -0.02175010       0.03216616
  |   Hirshfeld dipole moment :      0.03983554
  |   Hirshfeld second moments:      0.04580509      -0.01787053       0.00657013
  |                                 -0.01787053       0.02562247       0.04551095
  |                                  0.00657013       0.04551095      -0.01219394
  ----------------------------------------------------------------------
  | Atom     6: H
  |   Hirshfeld charge        :      0.10729669
  |   Free atom volume        :     10.44207651
  |   Hirshfeld volume        :     10.10861698
  |   Hirshfeld dipole vector :     -0.00297868       0.04701457       0.04938076
  |   Hirshfeld dipole moment :      0.06824736
  |   Hirshfeld second moments:      0.05713827      -0.01287919      -0.00000912
  |                                 -0.01287919       0.04894116       0.01006112
  |                                 -0.00000912       0.01006112       0.01322099
  ----------------------------------------------------------------------
  | Atom     7: H
  |   Hirshfeld charge        :      0.11130453
  |   Free atom volume        :     10.44207651
  |   Hirshfeld volume        :     11.00088104
  |   Hirshfeld dipole vector :      0.05350009      -0.03958202       0.00206780
  |   Hirshfeld dipole moment :      0.06658282
  |   Hirshfeld second moments:      0.03115399       0.00069634      -0.00013615
  |                                  0.00069634       0.03016991       0.02414904
  |                                 -0.00013615       0.02414904       0.02436187
  ----------------------------------------------------------------------
  | Atom     8: O
  |   Hirshfeld charge        :     -0.31745540
  |   Free atom volume        :     23.95238533
  |   Hirshfeld volume        :     23.77242760
  |   Hirshfeld dipole vector :     -0.03121799       0.04180974       0.04939215
  |   Hirshfeld dipole moment :      0.07184846
  |   Hirshfeld second moments:     -0.04841647      -0.05054199       0.02827784
  |                                 -0.05054199      -0.05116185      -0.02890049
  |                                  0.02827784      -0.02890049       0.01352772
  ----------------------------------------------------------------------
  | Atom     9: H
  |   Hirshfeld charge        :      0.12459650
  |   Free atom volume        :     10.44207651
  |   Hirshfeld volume        :      8.15564956
  |   Hirshfeld dipole vector :      0.01607732      -0.00725662       0.11708490
  |   Hirshfeld dipole moment :      0.11840613
  |   Hirshfeld second moments:      0.07820761      -0.02036625       0.00881156
  |                                 -0.02036625       0.07550465      -0.01048415
  |                                  0.00881156      -0.01048415       0.08100965
  ----------------------------------------------------------------------
  | Atom    10: H
  |   Hirshfeld charge        :      0.12339952
  |   Free atom volume        :     10.44207651
  |   Hirshfeld volume        :      8.63883970
  |   Hirshfeld dipole vector :     -0.07255265       0.07909454      -0.00612349
  |   Hirshfeld dipole moment :      0.10750502
  |   Hirshfeld second moments:      0.06313111      -0.01281780      -0.00742104
  |                                 -0.01281780       0.05501858      -0.00176919
  |                                 -0.00742104      -0.00176919       0.08455299
  ----------------------------------------------------------------------
  | Atom    11: O
  |   Hirshfeld charge        :     -0.31324458
  |   Free atom volume        :     23.95238533
  |   Hirshfeld volume        :     23.68833721
  |   Hirshfeld dipole vector :      0.05684153       0.03224133       0.00335249
  |   Hirshfeld dipole moment :      0.06543472
  |   Hirshfeld second moments:     -0.02462327      -0.02108769       0.01473598
  |                                 -0.02108769       0.00498467      -0.06214817
  |                                  0.01473598      -0.06214817      -0.05003916
  ----------------------------------------------------------------------
  | Atom    12: H
  |   Hirshfeld charge        :      0.09699577
  |   Free atom volume        :     10.44207651
  |   Hirshfeld volume        :      9.08614953
  |   Hirshfeld dipole vector :      0.07861761      -0.02525566       0.03490717
  |   Hirshfeld dipole moment :      0.08964981
  |   Hirshfeld second moments:      0.04891102       0.00600896      -0.00721131
  |                                  0.00600896       0.07225706      -0.01529639
  |                                 -0.00721131      -0.01529639       0.04422646
  ----------------------------------------------------------------------
  | Atom    13: H
  |   Hirshfeld charge        :      0.12566688
  |   Free atom volume        :     10.44207651
  |   Hirshfeld volume        :      8.07037741
  |   Hirshfeld dipole vector :      0.03318627       0.10248874      -0.04661986
  |   Hirshfeld dipole moment :      0.11738263
  |   Hirshfeld second moments:      0.08937484      -0.01207304       0.00973063
  |                                 -0.01207304       0.08255644      -0.01958347
  |                                  0.00973063      -0.01958347       0.07043849
  ----------------------------------------------------------------------


------------------------------------------------------------------------------
  Final output of selected total energy values:

  The following output summarizes some interesting total energy values
  at the end of a run (AFTER all relaxation, molecular dynamics, etc.).

  | Total energy of the DFT / Hartree-Fock s.c.f. calculation      :          -8345.692349136 eV
  | Final zero-broadening corrected energy (caution - metals only) :          -8345.695170084 eV
  | For reference only, the value of 1 Hartree used in FHI-aims is :             27.211384500 eV

  Before relying on these values, please be sure to understand exactly which
  total energy value is referred to by a given number. Different objects may
  all carry the same name 'total energy'. Definitions:

  Total energy of the DFT / Hartree-Fock s.c.f. calculation:
  | Note that this energy does not include ANY quantities calculated after the
  | s.c.f. cycle, in particular not ANY RPA, MP2, etc. many-body perturbation terms.

  Final zero-broadening corrected energy:
  | For metallic systems only, a broadening of the occupation numbers at the Fermi
  | level can be extrapolated back to zero broadening by an electron-gas inspired
  | formula. For all systems that are not real metals, this value can be
  | meaningless and should be avoided.

------------------------------------------------------------------------------

------------------------------------------------------------
          Leaving FHI-aims.
          Date     :  20150727, Time     :  125708.423

          Computational steps:
          | Number of self-consistency cycles          :           15

          Detailed time accounting                     :  max(cpu_time)    wall_clock(cpu1)
          | Total time                                 :       24.868 s          24.900 s
          | Preparation time                           :        0.171 s           0.499 s
          | Grid partitioning                          :        0.149 s           0.148 s
          | Preloading free-atom quantities on grid    :        0.014 s           0.013 s
          | Free-atom superposition energy             :        0.052 s           0.052 s
          | Total time for integrations                :       10.141 s          10.140 s
          | Total time for solution of K.-S. equations :        0.679 s           0.679 s
          | Total time for density & force components  :        8.448 s           8.452 s
          | Total time for mixing                      :        0.161 s           0.159 s
          | Total time for Hartree multipole update    :        0.065 s           0.065 s
          | Total time for Hartree multipole sum       :        4.439 s           4.442 s
          | Total time for total energy evaluation     :        0.002 s           0.004 s
          | Total time for scaled ZORA corrections     :        0.000 s           0.000 s
          | Total time for TS (2009) vdW correction    :        0.039 s           0.039 s

          Have a nice day.
------------------------------------------------------------
