  MPI-parallelism will be employed.
------------------------------------------------------------
          Invoking FHI-aims ...
          Version 081213
          Compiled on 2013/08/29 at 17:41:06 on host generoso.

          When using FHI-aims, please cite the following reference:

          Volker Blum, Ralf Gehrke, Felix Hanke, Paula Havu,
          Ville Havu, Xinguo Ren, Karsten Reuter, and Matthias Scheffler,
          'Ab Initio Molecular Simulations with Numeric Atom-Centered Orbitals: FHI-aims',
          Computer Physics Communications 180, 2175-2196 (2009)

          For any questions about FHI-aims, please visit the aimsclub website
          with its forums and wiki. Contributions to both the forums and the
          wiki are warmly encouraged - they are for you, and everyone is welcome there.

------------------------------------------------------------

  Date     :  20150727, Time     :  114917.910
  Time zero on CPU 1             :   0.499910000000000E-01  s.
  Internal wall clock time zero  :           207229757.910  s.

  Using        8 parallel tasks.
  Task        0 on host gen59 reporting.
  Task        1 on host gen59 reporting.
  Task        2 on host gen59 reporting.
  Task        3 on host gen59 reporting.
  Task        4 on host gen59 reporting.
  Task        5 on host gen59 reporting.
  Task        6 on host gen59 reporting.
  Task        7 on host gen59 reporting.

  Performing system and environment tests:
  | Environment variable OMP_NUM_THREADS correctly set to 1.
  | Checking for scalapack...
  | No scalapack compiled in.

  Obtaining array dimensions for all initial allocations:
  
  -----------------------------------------------------------------------
  Parsing control.in (first pass over file, find array dimensions only).
  The contents of control.in will be repeated verbatim below
  unless switched off by setting 'verbatim_writeout .false.' .
  in the first line of control.in .
  -----------------------------------------------------------------------
  
  #########################################################################################
  #
  #  Volker Blum, FHI 2008 : Test run input file control.in
  #
  #########################################################################################
  #
  #  Physical model
  #
    xc                 rpbe
    spin               none
    relativistic       atomic_zora scalar
    charge             0.
   vdw_correction_hirshfeld
  #
  #  SCF convergence
  #
    occupation_type    gaussian 0.01
    mixer              pulay
      n_max_pulay        10
      charge_mix_param   0.1
    sc_accuracy_rho    5E-5
    sc_accuracy_eev    5E-3
    sc_accuracy_etot   5E-6
    sc_iter_limit      3000
  #
  #  Eigenvalue solver
  #
    KS_method          lapack
      empty_states       8
      basis_threshold    0.e-5
  #
  #  Efficiency
  #
  #   all previous settings are now default, except stratmann still
  #   undecided. Continue to handle stratmann with care, if at all.
  #
  #  partition_type stratmann
    partition_type rho_r2
  #  hartree_partition_type stratmann
  #
  #  Oprions for large clusters (100's of atoms: memory saving / better scaling)
  #
  # for periodic systems:
  #
    density_update_method orbital
    packed_matrix_format none
  #  k_grid 6 6 6
  #  output k_eigenvalue 1
  #  distributed_spline_storage .true.
  #
  #  Relaxation
  #
  #  relax_geometry   bfgs 5.e-3
    sc_accuracy_forces 5.E-4
    final_forces_cleaned .true.
  #
  #  Output options
  #
  #  output mulliken
    output Hirshfeld
  #  output dipole
  
  #harmonic_length_scale 0.001
  
  ################################################################################
  #
  #  FHI-aims code project
  #  VB, Fritz-Haber Institut, 2007
  #
  #  Suggested "safe" defaults for H atom (to be pasted into control.in file)
  #  Basis constructed for a non-relativistic H2 molecule using the
  #  PW-LDA functional.
  #
  ################################################################################
    species        H
  #     global species definitions
      nucleus             1
      cut_pot             4.0  2.0  1.0
      cut_free_atom       finite 8.0
      logarithmic         0.00010000 100.00  1.0123
      basis_dep_cutoff    1d-4  # 1d-4 is safe default - please check 5d-4 if you wish!
      radial_base         24 7.0
      radial_multiplier   2
      angular_grids       specified
        division   0.2783  110
        division   0.3822  194
        division   0.5626  302
  #      division   0.5922  434
  #      division   0.6227  590
  #      division   0.7206  770
        outer_grid  302
      l_hartree           4
  ################################################################################
  #
  #  Definition of "minimal" basis
  #
  ################################################################################
  #     valence basis states
      valence      1  s   1.
  #     ion occupancy
      ion_occ      1  s   0.5
  ################################################################################
  #
  #  Suggested additional basis functions. For production calculations,
  #  uncomment them one after another (the most important basis functions are
  #  listed first).
  #
  ################################################################################
  #  "First tier" - improvements: -1014.90 meV to -62.69 meV
       hydro 2 s 2.1
       hydro 2 p 3.5
  #  "Second tier" - improvements: -12.89 meV to -1.83 meV
       hydro 1 s 0.85
       hydro 2 p 3.7
       hydro 2 s 1.2
       hydro 3 d 7
  #  "Third tier" - improvements: -0.25 meV to -0.12 meV
  #     hydro 4 f 11.2
  #     hydro 3 p 4.8
  #     hydro 4 d 9
  #     hydro 3 s 3.2
  
  ################################################################################
  #
  #  FHI-aims code project
  #  VB, Fritz-Haber Institut, 2007
  #
  #  Suggested "safe" defaults for O atom (to be pasted into control.in file)
  #  All values have been tested for a non-relativistic, non-spinpolarized O2
  #  molecule using the PW-LDA functional. Validity for PBE is expected.
  #
  #  Constructed for dimers: 1.0 A, 1.208 A, 1.5 A, 2.0 A, 3.0 A
  #
  ################################################################################
    species        O
  #     global species definitions
      nucleus             8
      mass                15.9994
      l_hartree           4
      cut_pot             4.0  2.0  1.0
      cut_free_atom       finite 8.0
      basis_dep_cutoff    1d-4  # 1d-4 is safe default - please check 5d-4 if you wish!
      logarithmic         0.00010000 100.00  1.0123
      radial_base         36 7.0
      radial_multiplier   2
       angular_grids specified
        division   0.4087  110
        division   0.5181  194
        division   0.6184  302
  #      division   0.7315  434
  #      division   0.7934  590
  #      division   0.9656  770
  #      division   1.4041  974
  #      outer_grid 974
        outer_grid 302
  ################################################################################
  #
  #  Definition of "minimal" basis
  #
  ################################################################################
  #     valence basis states
      valence      2  s   2.
      valence      2  p   4.
  #     ion occupancy
      ion_occ      2  s   1.
      ion_occ      2  p   3.
  ################################################################################
  #
  #  Suggested additional basis functions. For production calculations,
  #  uncomment them one after another (the most important basis functions are
  #  listed first).
  #
  ################################################################################
  #  "First tier" - improvements: -699.05 meV to -159.38 meV
       hydro 2 p 1.8
       hydro 3 d 7.6
       hydro 3 s 6.4
  #  "Second tier" - improvements: -49.91 meV to -5.39 meV
       hydro 4 f 11.6
       hydro 3 p 6.2
       hydro 3 d 5.6
       hydro 5 g 17.6
       hydro 1 s 0.75
  #  "Third tier" - improvements: -2.83 meV to -0.50 meV
  #     ionic 2 p auto
  #     hydro 4 f 10.8
  #     hydro 4 d 4.7
  #     hydro 2 s 6.8
  #  "Fourth tier" - improvements: -0.40 meV to -0.12 meV
  #     hydro 3 p 5
  #     hydro 3 s 3.3
  #     hydro 5 g 15.6
  #     hydro 4 f 17.6
  #     hydro 4 d 14
  # Further basis functions - -0.08 meV and below
  #     hydro 3 s 2.1
  #     hydro 4 d 11.6
  #     hydro 3 p 16
  #     hydro 2 s 17.2
  
  
  -----------------------------------------------------------------------
  Completed first pass over input file control.in .
  -----------------------------------------------------------------------
  
  
  -----------------------------------------------------------------------
  Parsing geometry.in (first pass over file, find array dimensions only).
  The contents of geometry.in will be repeated verbatim below
  unless switched off by setting 'verbatim_writeout .false.' .
  in the first line of geometry.in .
  -----------------------------------------------------------------------
  
  atom      -4.053030000      0.065001000     -1.525160000  O
  atom      -4.566710000      0.974813000     -1.912820000  H
  atom      -3.067820000      0.330172000     -1.477310000  H
  atom      -4.370360000     -0.049164000     -0.572274000  H
  atom      -4.581760000     -0.256435000      0.939478000  O
  atom      -4.349860000      0.471090000      1.504340000  H
  atom      -5.393870000     -0.726611000      1.228070000  H
  atom      -5.293160000      2.192130000     -2.328800000  O
  atom      -4.829300000      2.988660000     -1.973850000  H
  atom      -5.428570000      2.328640000     -3.235170000  H
  atom      -1.645860000      0.870179000     -1.502250000  O
  atom      -1.568890000      1.501730000     -0.721051000  H
  atom      -0.824432000      0.282220000     -1.377720000  H
  atom      -3.818880000      2.024990000      2.187990000  O
  atom      -3.690880000      1.961360000      3.202150000  H
  atom      -4.546490000      2.751300000      2.045370000  H
  atom      -5.628340000      3.730740000      1.385610000  O
  atom      -6.090650000      4.418470000      1.860350000  H
  atom      -5.158540000      4.200260000      0.615875000  H
  
  -----------------------------------------------------------------------
  Completed first pass over input file geometry.in .
  -----------------------------------------------------------------------
  
 
  Basic array size parameters: 
  | Number of species                 :        2
  | Number of atoms                   :       19
  | Max. basis fn. angular momentum   :        4
  | Max. atomic/ionic basis occupied n:        2
  | Max. number of basis fn. types    :        2
  | Max. radial fns per species/type  :        8
  | Max. logarithmic grid size        :     1301
  | Max. radial integration grid size :       73
  | Max. angular integration grid size:      302
  | Max. angular grid division number :        8
  | Radial grid for Hartree potential :     1301
  | Number of spin channels           :        1

------------------------------------------------------------
          Reading file control.in.
------------------------------------------------------------
  XC: Using RPBE gradient-corrected functionals.
  Spin treatment: No spin polarisation.
  Scalar relativistic treatment of kinetic energy: on-site free-atom approximation to ZORA.
  Charge =   0.000000E+00: Neutral system requested explicitly.
  Using non-empirical van der Waals correction (Hirshfeld partitioning):
  Occupation type: Gaussian broadening, width =   0.100000E-01 eV.
  Using pulay charge density mixing.
  Pulay mixing - number of memorized iterations:   10
  Charge density mixing - mixing parameter:     0.1000
  Convergence accuracy of self-consistent charge density: 0.5000E-04
  Convergence accuracy of sum of eigenvalues: 0.5000E-02
  Convergence accuracy of total energy: 0.5000E-05
  Maximum number of s.-c. iterations  :  3000
  Kohn-Sham eigenvalues and eigenfunctions calculated by lapack diagonalisation (D&C).
  Number of empty states per atom:        8
  Threshold for basis singularities: 0.0000E+00
  Partition function in integrals calculations: rho / r^2
 Using packed matrix format           0
  Convergence accuracy of forces: 0.5000E-03
  Cleaning forces before final output.
  Hirshfeld charge analysis will be performed.
 
  Reading configuration options for species H                   .
  | Found nuclear charge :   1.0000
  | Found cutoff potl. onset [A], width [A], scale factor :    4.00000    2.00000    1.00000
  | Found cutoff specification for free atom: Cutoff potential begins at    8.00000 A.
  | Found logarithmic grid data [bohr] : 0.1000E-03 0.1000E+03 0.1012E+01
  | Threshold for basis-dependent cutoff potential is   0.100000E-03
  | Found data for basic radial integration grid :    24 points, outermost radius =    7.000 A
  | Found multiplier for basic radial grid :   2
  | Found angular grid specification: user-specified.
  | Specified grid contains     4 separate shells.
  | Check grid settings after all constraints further below.
  | Found l_max for Hartree potential  :   4
  | Found free-atom valence shell :  1 s   1.000
  | No ionic wave fns used. Skipping ion_occ.
  | Found hydrogenic basis function :  2 s   2.100
  | Found hydrogenic basis function :  2 p   3.500
  | Found hydrogenic basis function :  1 s   0.850
  | Found hydrogenic basis function :  2 p   3.700
  | Found hydrogenic basis function :  2 s   1.200
  | Found hydrogenic basis function :  3 d   7.000
  Species H                   : Missing cutoff potential type.
  Defaulting to exp(1/x)/(1-x)^2 type cutoff potential.
  Species H : On-site basis accuracy parameter (for Gram-Schmidt orthonormalisation) not specified.
  Using default value basis_acc =  0.1000000E-03.
  Species H                   : Using default innermost maximum threshold i_radial=  2 for radial functions.
  Species H                   : Basic radial grid will be enhanced according to radial_multiplier =   2, to contain    49 grid points.
 
  Reading configuration options for species O                   .
  | Found nuclear charge :   8.0000
  | Found atomic mass :    15.9994000000000      amu
  | Found l_max for Hartree potential  :   4
  | Found cutoff potl. onset [A], width [A], scale factor :    4.00000    2.00000    1.00000
  | Found cutoff specification for free atom: Cutoff potential begins at    8.00000 A.
  | Threshold for basis-dependent cutoff potential is   0.100000E-03
  | Found logarithmic grid data [bohr] : 0.1000E-03 0.1000E+03 0.1012E+01
  | Found data for basic radial integration grid :    36 points, outermost radius =    7.000 A
  | Found multiplier for basic radial grid :   2
  | Found angular grid specification: user-specified.
  | Specified grid contains     4 separate shells.
  | Check grid settings after all constraints further below.
  | Found free-atom valence shell :  2 s   2.000
  | Found free-atom valence shell :  2 p   4.000
  | No ionic wave fns used. Skipping ion_occ.
  | No ionic wave fns used. Skipping ion_occ.
  | Found hydrogenic basis function :  2 p   1.800
  | Found hydrogenic basis function :  3 d   7.600
  | Found hydrogenic basis function :  3 s   6.400
  | Found hydrogenic basis function :  4 f  11.600
  | Found hydrogenic basis function :  3 p   6.200
  | Found hydrogenic basis function :  3 d   5.600
  | Found hydrogenic basis function :  5 g  17.600
  | Found hydrogenic basis function :  1 s   0.750
  Species O                   : Missing cutoff potential type.
  Defaulting to exp(1/x)/(1-x)^2 type cutoff potential.
  Species O : On-site basis accuracy parameter (for Gram-Schmidt orthonormalisation) not specified.
  Using default value basis_acc =  0.1000000E-03.
  Species O                   : Using default innermost maximum threshold i_radial=  2 for radial functions.
  Species O                   : Basic radial grid will be enhanced according to radial_multiplier =   2, to contain    73 grid points.
 
  Finished reading input file 'control.in'. Consistency checks are next.
 
  Target number of points in a grid batch is not set. Defaulting to  100
  Method for grid partitioning is not set. Defaulting to parallel hash+maxmin partitioning.
  Batch size limit is not set. Defaulting to    200
  By default, will store active basis functions for each batch.
  If in need of memory, prune_basis_once .false. can be used to disable this option.
  communication_type for Hartree potential was not specified.
  Defaulting to calc_hartree .
  Pulay mixer: Number of initial linear mixing iterations not set.
  Defaulting to    0 iterations.
  Work space size for distributed Hartree potential not set.
  Defaulting to   0.200000E+03 MB.
  Algorithm-dependent basis array size parameters:
  | n_max_pulay                         :       10
  Geometry relaxation not requested: no relaxation will be performed.
  Handling of forces: Unphysical translation and rotation will be removed from forces.
  No accuracy limit for integral partition fn. given. Defaulting to 0.1000E-14.
  No threshold value for u(r) in integrations given. Defaulting to 0.1000E-05.
  No accuracy for occupation numbers given. Defaulting to 0.1000E-07.
  No threshold value for occupation numbers given. Defaulting to 0.0000E+00.
  No accuracy for fermi level given. Defaulting to 0.1000E-19.
  Maximum # of iterations to find E_F not set. Defaulting to  200.
  Will not use alltoall communication since running on < 1024 CPUs.
  Partitioning for Hartree potential was not defined. Using partition_type for integrals.
  | Reporting present value of keyword multip_moments_threshold  :       0.10000000E-09
  | This value may affect high angular momentum components of the Hartree potential in periodic systems.
  No q(lm)/r^(l+1) cutoff set for long-range Hartree potential.
  | Using default value of  0.100000E-09 .
  | Verify using the multipole_threshold keyword.
  Defaulting to new monopole extrapolation.
  Density update method: Loop over occupied states selected for charge density update.
------------------------------------------------------------


------------------------------------------------------------
          Reading geometry description geometry.in.
------------------------------------------------------------
  Input structure read successfully.
  The structure contains       19 atoms,  and a total of         61.000 electrons.

  Input geometry:
  | No unit cell requested.
  | Atomic structure:
  |       Atom                x [A]            y [A]            z [A]
  |    1: Species O             -4.053030         0.065001        -1.525160
  |    2: Species H             -4.566710         0.974813        -1.912820
  |    3: Species H             -3.067820         0.330172        -1.477310
  |    4: Species H             -4.370360        -0.049164        -0.572274
  |    5: Species O             -4.581760        -0.256435         0.939478
  |    6: Species H             -4.349860         0.471090         1.504340
  |    7: Species H             -5.393870        -0.726611         1.228070
  |    8: Species O             -5.293160         2.192130        -2.328800
  |    9: Species H             -4.829300         2.988660        -1.973850
  |   10: Species H             -5.428570         2.328640        -3.235170
  |   11: Species O             -1.645860         0.870179        -1.502250
  |   12: Species H             -1.568890         1.501730        -0.721051
  |   13: Species H             -0.824432         0.282220        -1.377720
  |   14: Species O             -3.818880         2.024990         2.187990
  |   15: Species H             -3.690880         1.961360         3.202150
  |   16: Species H             -4.546490         2.751300         2.045370
  |   17: Species O             -5.628340         3.730740         1.385610
  |   18: Species H             -6.090650         4.418470         1.860350
  |   19: Species H             -5.158540         4.200260         0.615875
  |

  | The smallest distance between any two atoms is         0.92654057 AA.
  |
  | The first atom of this pair is atom number                      8 .
  | The second atom of this pair is atom number                    10 .

  Structure-dependent array size parameters: 
  | Maximum number of distinct radial functions  :       18
  | Maximum number of basis functions            :      429
  | Number of Kohn-Sham states (occupied + empty):      107
------------------------------------------------------------

------------------------------------------------------------
          Preparing all fixed parts of the calculation.
------------------------------------------------------------
  Determining machine precision:
    2.225073858507201E-308
  Setting up grids for atomic and cluster calculations.

  Creating wave function, potential, and density for free atoms.

  Species: H

  List of occupied orbitals and eigenvalues:
    n    l              occ      energy [Ha]    energy [eV]
    1    0           1.0000        -0.241408        -6.5691


  Species: O

  List of occupied orbitals and eigenvalues:
    n    l              occ      energy [Ha]    energy [eV]
    1    0           2.0000       -18.944147      -515.4965
    2    0           2.0000        -0.883529       -24.0421
    2    1           4.0000        -0.330176        -8.9845

  Creating fixed part of basis set: Ionic, confined, hydrogenic.
 
  H                    hydrogenic:
 
  List of hydrogenic basis orbitals: 
    n    l      effective z      eigenvalue [eV]  inner max. [A]     outer max. [A]     outer radius [A]   
    2    0         2.100000       -14.9965           0.193241           1.317192           5.372934
    2    1         3.500000       -41.6672           0.602363           0.602363           4.056010
    1    0         0.850000        -9.8292           0.624864           0.624864           5.372934
    2    1         3.700000       -46.5653           0.573616           0.573616           3.909951
    2    0         1.200000        -4.5995           0.334977           2.228160           5.505921
    3    2         7.000000       -74.0753           0.680692           0.680692           3.769152
 
 
  O                    hydrogenic:
 
  List of hydrogenic basis orbitals: 
    n    l      effective z      eigenvalue [eV]  inner max. [A]     outer max. [A]     outer radius [A]   
    2    1         1.800000       -11.0118           1.178546           1.178546           5.432516
    3    2         7.600000       -87.3182           0.624117           0.624117           3.541422
    3    0         6.400000       -61.9209           0.061166           1.081887           4.306510
    4    3        11.600000      -114.4238           0.731621           0.731621           3.584982
    3    1         6.200000       -58.1113           0.255677           1.030255           4.306510
    3    2         5.600000       -47.4081           0.847222           0.847222           4.413102
    5    4        17.600000      -168.5799           0.749730           0.749730           3.372413
    1    0         0.750000        -7.6499           0.705275           0.705275           5.366508
 

  Adding cutoff potential to free-atom effective potential.
  Creating atomic-like basis functions for current effective potential.

  Species H                   :

  List of atomic basis orbitals and eigenvalues:
    n    l      energy [Ha]    energy [eV]    outer radius [A]
    1    0        -0.241374        -6.5681       5.372934


  Species O                   :

  List of atomic basis orbitals and eigenvalues:
    n    l      energy [Ha]    energy [eV]    outer radius [A]
    1    0       -18.944147      -515.4965       1.415745
    2    0        -0.883529       -24.0421       5.048305
    2    1        -0.330173        -8.9845       5.301302

  Assembling full basis from fixed parts.
  | Species H :   atomic orbital   1 s accepted.
  | Species H :    hydro orbital   2 s accepted.
  | Species H :    hydro orbital   1 s accepted.
  | Species H :    hydro orbital   2 s accepted.
  | Species H :    hydro orbital   2 p accepted.
  | Species H :    hydro orbital   2 p accepted.
  | Species H :    hydro orbital   3 d accepted.
  | Species O :   atomic orbital   1 s accepted.
  | Species O :    hydro orbital   3 s accepted.
  | Species O :   atomic orbital   2 s accepted.
  | Species O :    hydro orbital   1 s accepted.
  | Species O :    hydro orbital   3 p accepted.
  | Species O :   atomic orbital   2 p accepted.
  | Species O :    hydro orbital   2 p accepted.
  | Species O :    hydro orbital   3 d accepted.
  | Species O :    hydro orbital   3 d accepted.
  | Species O :    hydro orbital   4 f accepted.
  | Species O :    hydro orbital   5 g accepted.
 
  Basis size parameters after reduction:
  | Total number of radial functions:       18
  | Total number of basis functions :      429
 
  Testing on-site integration grid accuracy.
  |  Species  Function  <phi|h_atom|phi> (log., in eV)  <phi|h_atom|phi> (rad., in eV)
           1        1                 -6.5683835025                 -6.5684759159
           1        2                 13.3711789951                 13.3708738703
           1        3                 23.6590910787                 23.6532055418
           1        4                 16.2963827186                 16.1870710655 ***
           1        5                 28.7627214838                 28.7627215090
           1        6                 59.5965249172                 59.5965950857
           1        7                 60.2220506392                 60.2220503827
           2        8               -515.4964576505               -515.4964530710
           2        9                 15.3030791347                 15.3030722972
           2       10                -21.7296094581                -21.7296135470
           2       11                 14.2969371730                 14.2969701621
           2       12                 21.0679693190                 21.0679697493
           2       13                 -2.3833606469                 -2.3833613176
           2       14                 13.7067136422                 13.7066766629
           2       15                 45.8013116808                 45.8013116965
           2       16                 52.2309815402                 52.2309831494
           2       17                 85.4120732416                 85.4120732763
           2       18                142.1019167745                142.1019167817
 * Note: Onsite integrals marked "***" above are less accurate than
 * onsite_accuracy_threshold =    0.03000 eV. Usually, this is harmless.
 * When in doubt, tighten the "radial" and/or "radial_multiplier" flags to check.

  Preparing densities etc. for the partition functions (integrals / Hartree potential).

  Preparations completed.
  max(cpu_time)          :      0.172 s.
  Wall clock time (cpu1) :      0.614 s.
------------------------------------------------------------

------------------------------------------------------------
          Begin self-consistency loop: Initialization.

          Date     :  20150727, Time     :  114918.557
------------------------------------------------------------

  Initializing index lists of integration centers etc. from given atomic structure:
  | Number of centers in hartree potential         :        19
  | Number of centers in hartree multipole         :        19
  | Number of centers in electron density summation:        19
  | Number of centers in basis integrals           :        19
  | Number of centers in integrals                 :        19
  Partitioning the integration grid into batches with parallel hashing+maxmin method.
  | Number of batches:     2423
  | Maximal batch size:     193
  | Minimal batch size:      51
  | Average batch size:     102.206
  | Standard deviation of batch sizes:      30.605

  Integration load balanced across     8 MPI tasks.
  Work distribution over tasks is as follows:
  Task     0 has      30875 integration points.
  Task     1 has      30968 integration points.
  Task     2 has      30914 integration points.
  Task     3 has      30986 integration points.
  Task     4 has      31020 integration points.
  Task     5 has      31002 integration points.
  Task     6 has      30913 integration points.
  Task     7 has      30968 integration points.
  Initializing partition tables, free-atom densities, potentials, etc. across the integration grid (initialize_grid_storage).
  | Net number of integration points:   247646
  | of which are non-zero points    :   247073
  Obtaining max. number of non-zero basis functions in each batch (get_n_compute_maxes).
  | Maximal number of non-zero basis functions:      423 in task     0
  | Maximal number of non-zero basis functions:      424 in task     1
  | Maximal number of non-zero basis functions:      425 in task     2
  | Maximal number of non-zero basis functions:      424 in task     3
  | Maximal number of non-zero basis functions:      425 in task     4
  | Maximal number of non-zero basis functions:      424 in task     5
  | Maximal number of non-zero basis functions:      425 in task     6
  | Maximal number of non-zero basis functions:      423 in task     7
  Integrating Hamiltonian matrix: batch-based integration.
  Time summed over all CPUs for integration: real work       11.475 s, elapsed       11.644 s
  Integrating overlap matrix.
  Time summed over all CPUs for integration: real work        6.263 s, elapsed        6.355 s

  Updating Kohn-Sham eigenvalues, eigenvectors, occupation numbers, and Fermi level.
  Solving generalized eigenproblem
  Updating Kohn-Sham eigenvalues and eigenfunctions.
  Transforming overlap matrix and checking for singularities.
  Overlap matrix is nonsingular:
  | Lowest eigenvalue:  0.158826E-03
  Solving real generalised eigenvalue problem by standard LAPACK (fast)
  Determining occupation numbers for Kohn-Sham eigenstates.
  | Chemical potential (Fermi level) in eV                 : -.27529327E+01
  | Error in electron count due to remaining E_F inaccuracy: 0.15774049E-11
  | Maximum occupation number of highest empty state:  0.00E+00

  Writing Kohn-Sham eigenvalues.

  State    Occupation    Eigenvalue [Ha]    Eigenvalue [eV]
      1       2.00000         -19.065398         -518.79587
      2       2.00000         -19.064865         -518.78136
      3       2.00000         -19.059280         -518.62939
      4       2.00000         -19.050530         -518.39131
      5       2.00000         -19.042480         -518.17226
      6       2.00000         -19.032255         -517.89400
      7       2.00000          -1.131997          -30.80321
      8       2.00000          -1.117308          -30.40351
      9       2.00000          -1.105426          -30.08017
     10       2.00000          -1.098997          -29.90523
     11       2.00000          -1.081643          -29.43299
     12       2.00000          -1.063849          -28.94881
     13       2.00000          -0.655397          -17.83426
     14       2.00000          -0.651044          -17.71580
     15       2.00000          -0.648041          -17.63410
     16       2.00000          -0.628692          -17.10757
     17       2.00000          -0.626629          -17.05145
     18       2.00000          -0.602674          -16.39959
     19       2.00000          -0.602451          -16.39352
     20       2.00000          -0.542966          -14.77485
     21       2.00000          -0.520925          -14.17510
     22       2.00000          -0.509599          -13.86690
     23       2.00000          -0.506149          -13.77301
     24       2.00000          -0.487942          -13.27758
     25       2.00000          -0.482287          -13.12369
     26       2.00000          -0.452779          -12.32075
     27       2.00000          -0.446591          -12.15237
     28       2.00000          -0.438854          -11.94182
     29       2.00000          -0.435847          -11.86000
     30       2.00000          -0.424821          -11.55997
     31       1.00000          -0.101168           -2.75293
     32       0.00000          -0.075238           -2.04734
     33       0.00000          -0.067592           -1.83926
     34       0.00000          -0.055985           -1.52344
     35       0.00000          -0.038562           -1.04932
     36       0.00000          -0.019944           -0.54270
     37       0.00000          -0.005872           -0.15979
     38       0.00000           0.008768            0.23858
     39       0.00000           0.024211            0.65882
     40       0.00000           0.041260            1.12273
     41       0.00000           0.043049            1.17141
     42       0.00000           0.051984            1.41457
     43       0.00000           0.063947            1.74008
     44       0.00000           0.070946            1.93055
     45       0.00000           0.078072            2.12444
     46       0.00000           0.085977            2.33956
     47       0.00000           0.092105            2.50632
     48       0.00000           0.097822            2.66188
     49       0.00000           0.101194            2.75363
     50       0.00000           0.108584            2.95472
     51       0.00000           0.113376            3.08513
     52       0.00000           0.120433            3.27714
     53       0.00000           0.124871            3.39791
     54       0.00000           0.133762            3.63985
     55       0.00000           0.137477            3.74094
     56       0.00000           0.148778            4.04846
     57       0.00000           0.154476            4.20352
     58       0.00000           0.159749            4.34700
     59       0.00000           0.174051            4.73616
     60       0.00000           0.175533            4.77649
     61       0.00000           0.190966            5.19646
     62       0.00000           0.197245            5.36731
     63       0.00000           0.210984            5.74117
     64       0.00000           0.227901            6.20150
     65       0.00000           0.231074            6.28784
     66       0.00000           0.249759            6.79629
     67       0.00000           0.253806            6.90640
     68       0.00000           0.273729            7.44854
     69       0.00000           0.274827            7.47841
     70       0.00000           0.294754            8.02068
     71       0.00000           0.299358            8.14593
     72       0.00000           0.307727            8.37368
     73       0.00000           0.336779            9.16423
     74       0.00000           0.340177            9.25669
     75       0.00000           0.341751            9.29953
     76       0.00000           0.358812            9.76378
     77       0.00000           0.371273           10.10286
     78       0.00000           0.377244           10.26533
     79       0.00000           0.387157           10.53507
     80       0.00000           0.390296           10.62050
     81       0.00000           0.402059           10.94057
     82       0.00000           0.418431           11.38609
     83       0.00000           0.427830           11.64184
     84       0.00000           0.432513           11.76928
     85       0.00000           0.443643           12.07213
     86       0.00000           0.453049           12.32808
     87       0.00000           0.471868           12.84018
     88       0.00000           0.476895           12.97698
     89       0.00000           0.481019           13.08920
     90       0.00000           0.485715           13.21699
     91       0.00000           0.517862           14.09174
     92       0.00000           0.532825           14.49891
     93       0.00000           0.539674           14.68528
     94       0.00000           0.570712           15.52985
     95       0.00000           0.581635           15.82711
     96       0.00000           0.586866           15.96944
     97       0.00000           0.610533           16.61346
     98       0.00000           0.617194           16.79469
     99       0.00000           0.636697           17.32540
    100       0.00000           0.668504           18.19092
    101       0.00000           0.683838           18.60818
    102       0.00000           0.737346           20.06420
    103       0.00000           0.742736           20.21088
    104       0.00000           0.755090           20.54704
    105       0.00000           0.776502           21.12968
    106       0.00000           0.785257           21.36792
    107       0.00000           0.799578           21.75763

  Highest occupied state (VBM) at     -2.75293270 eV
  | Occupation number:      1.00000000

  Lowest unoccupied state (CBM) at    -2.04734227 eV
  | Occupation number:      0.00000000

  Overall HOMO-LUMO gap:      0.70559044 eV.
  Calculating total energy contributions from superposition of free atom densities.

  Total energy components:
  | Sum of eigenvalues            :        -261.25660232 Ha       -7109.15385881 eV
  | XC energy correction          :         -55.10461830 Ha       -1499.47295621 eV
  | XC potential correction       :          70.43433112 Ha        1916.61566604 eV
  | Free-atom electrostatic energy:        -214.22820351 Ha       -5829.44601643 eV
  | Hartree energy correction     :           0.00000000 Ha           0.00000000 eV
  | van der Waals energy corr.    :           0.00000000 Ha           0.00000000 eV
  | Entropy correction            :          -0.00010367 Ha          -0.00282095 eV
  | ---------------------------
  | Total energy                  :        -460.15509301 Ha      -12521.45716541 eV
  | Total energy, T -> 0          :        -460.15519667 Ha      -12521.45998636 eV  <-- do not rely on this value for anything but (periodic) metals
  | Electronic free energy        :        -460.15530034 Ha      -12521.46280731 eV

  Derived energy quantities:
  | Kinetic energy                :         455.80227914 Ha       12403.01107371 eV
  | Electrostatic energy          :        -860.85275385 Ha      -23424.99528292 eV
  | Energy correction for multipole
  | error in Hartree potential    :           0.00000000 Ha           0.00000000 eV
  | Sum of eigenvalues per atom                           :        -374.16599257 eV
  | Total energy (T->0) per atom                          :        -659.02420981 eV  <-- do not rely on this value for anything but (periodic) metals
  | Electronic free energy per atom                       :        -659.02435828 eV
  Initialize hartree_potential_storage
  Max. number of atoms included in rho_multipole:           19

  End scf initialization - timings             :  max(cpu_time)    wall_clock(cpu1)
  | Time for scf. initialization               :        3.115 s           3.115 s
  | Boundary condition initialization          :        0.000 s           0.000 s
  | Integration                                :        2.256 s           2.255 s
  | Solution of K.-S. eqns.                    :        0.325 s           0.325 s
  | Grid partitioning                          :        0.212 s           0.211 s
  | Preloading free-atom quantities on grid    :        0.013 s           0.013 s
  | Free-atom superposition energy             :        0.099 s           0.099 s
  | Total energy evaluation                    :        0.000 s           0.001 s
------------------------------------------------------------

------------------------------------------------------------
          Begin self-consistency iteration #    1

  Date     :  20150727, Time     :  114921.672
------------------------------------------------------------
  Evaluating new KS density.
  Integration grid: deviation in total charge (<rho> - N_e) =   1.612932E-12
  Pulay mixing of updated and previous charge densities.

  Evaluating partitioned Hartree potential by multipole expansion.
  | Analytical far-field extrapolation by fixed multipoles:
  | Hartree multipole sum: apparent total charge =  -0.172203E-05
  Summing up the Hartree potential.
  Time summed over all CPUs for potential: real work        4.064 s, elapsed        4.075 s
  | RMS charge density error from multipole expansion :   0.182696E-02

  Integrating Hamiltonian matrix: batch-based integration.
  Time summed over all CPUs for integration: real work       11.466 s, elapsed       11.645 s

  Updating Kohn-Sham eigenvalues, eigenvectors, occupation numbers, and Fermi level.
  Solving generalized eigenproblem
  Updating Kohn-Sham eigenvalues and eigenfunctions.
  Solving real generalised eigenvalue problem by standard LAPACK (fast)
  Determining occupation numbers for Kohn-Sham eigenstates.
  | Chemical potential (Fermi level) in eV                 : -.25153274E+01
  | Error in electron count due to remaining E_F inaccuracy: -.46637894E-09
  | Maximum occupation number of highest empty state:  0.00E+00

  Writing Kohn-Sham eigenvalues.

  State    Occupation    Eigenvalue [Ha]    Eigenvalue [eV]
      1       2.00000         -19.004208         -517.13081
      2       2.00000         -18.995240         -516.88677
      3       2.00000         -18.982891         -516.55075
      4       2.00000         -18.976479         -516.37627
      5       2.00000         -18.975967         -516.36234
      6       2.00000         -18.953440         -515.74934
      7       2.00000          -1.100356          -29.94221
      8       2.00000          -1.083696          -29.48887
      9       2.00000          -1.067827          -29.05704
     10       2.00000          -1.061511          -28.88518
     11       2.00000          -1.049637          -28.56209
     12       2.00000          -1.022273          -27.81745
     13       2.00000          -0.623030          -16.95350
     14       2.00000          -0.622122          -16.92879
     15       2.00000          -0.618790          -16.83813
     16       2.00000          -0.599880          -16.32356
     17       2.00000          -0.595927          -16.21601
     18       2.00000          -0.575744          -15.66678
     19       2.00000          -0.567642          -15.44633
     20       2.00000          -0.510736          -13.89783
     21       2.00000          -0.483278          -13.15066
     22       2.00000          -0.476710          -12.97193
     23       2.00000          -0.470495          -12.80283
     24       2.00000          -0.451710          -12.29164
     25       2.00000          -0.445065          -12.11085
     26       2.00000          -0.418093          -11.37689
     27       2.00000          -0.407039          -11.07609
     28       2.00000          -0.402243          -10.94559
     29       2.00000          -0.399067          -10.85917
     30       2.00000          -0.382068          -10.39659
     31       1.00000          -0.092437           -2.51533
     32       0.00000          -0.067475           -1.83608
     33       0.00000          -0.058813           -1.60039
     34       0.00000          -0.047757           -1.29953
     35       0.00000          -0.029898           -0.81357
     36       0.00000          -0.013182           -0.35870
     37       0.00000           0.001943            0.05288
     38       0.00000           0.018520            0.50396
     39       0.00000           0.032143            0.87465
     40       0.00000           0.048145            1.31008
     41       0.00000           0.053021            1.44276
     42       0.00000           0.058576            1.59394
     43       0.00000           0.070492            1.91819
     44       0.00000           0.080753            2.19741
     45       0.00000           0.087508            2.38120
     46       0.00000           0.097693            2.65836
     47       0.00000           0.100346            2.73056
     48       0.00000           0.105871            2.88090
     49       0.00000           0.108184            2.94384
     50       0.00000           0.121202            3.29808
     51       0.00000           0.123504            3.36072
     52       0.00000           0.132801            3.61371
     53       0.00000           0.133354            3.62875
     54       0.00000           0.145038            3.94670
     55       0.00000           0.152946            4.16186
     56       0.00000           0.158176            4.30419
     57       0.00000           0.167485            4.55749
     58       0.00000           0.173766            4.72842
     59       0.00000           0.183351            4.98925
     60       0.00000           0.186337            5.07049
     61       0.00000           0.200113            5.44537
     62       0.00000           0.206751            5.62598
     63       0.00000           0.219945            5.98501
     64       0.00000           0.237145            6.45305
     65       0.00000           0.239036            6.50449
     66       0.00000           0.259055            7.04924
     67       0.00000           0.263606            7.17309
     68       0.00000           0.282154            7.67779
     69       0.00000           0.283382            7.71121
     70       0.00000           0.302504            8.23156
     71       0.00000           0.305397            8.31029
     72       0.00000           0.314700            8.56341
     73       0.00000           0.345334            9.39702
     74       0.00000           0.349377            9.50703
     75       0.00000           0.350976            9.55054
     76       0.00000           0.367498           10.00013
     77       0.00000           0.380661           10.35832
     78       0.00000           0.386185           10.50863
     79       0.00000           0.397145           10.80686
     80       0.00000           0.398229           10.83635
     81       0.00000           0.410816           11.17886
     82       0.00000           0.428458           11.65894
     83       0.00000           0.436650           11.88185
     84       0.00000           0.441508           12.01405
     85       0.00000           0.451263           12.27948
     86       0.00000           0.461651           12.56215
     87       0.00000           0.481229           13.09490
     88       0.00000           0.486370           13.23481
     89       0.00000           0.489597           13.32262
     90       0.00000           0.496882           13.52084
     91       0.00000           0.528769           14.38854
     92       0.00000           0.543166           14.78029
     93       0.00000           0.551035           14.99442
     94       0.00000           0.582512           15.85095
     95       0.00000           0.592968           16.13547
     96       0.00000           0.598642           16.28988
     97       0.00000           0.621988           16.92516
     98       0.00000           0.628317           17.09736
     99       0.00000           0.648779           17.65418
    100       0.00000           0.679931           18.50186
    101       0.00000           0.696107           18.94204
    102       0.00000           0.749438           20.39324
    103       0.00000           0.753841           20.51306
    104       0.00000           0.765872           20.84044
    105       0.00000           0.788971           21.46898
    106       0.00000           0.795389           21.64365
    107       0.00000           0.811263           22.07558

  Highest occupied state (VBM) at    -10.39658787 eV
  | Occupation number:      2.00000000

  Lowest unoccupied state (CBM) at    -2.51532741 eV
  | Occupation number:      1.00000000

  Overall HOMO-LUMO gap:      7.88126046 eV.

  Total energy components:
  | Sum of eigenvalues            :        -258.73875860 Ha       -7040.63984543 eV
  | XC energy correction          :         -55.36883854 Ha       -1506.66275479 eV
  | XC potential correction       :          70.77924766 Ha        1926.00132269 eV
  | Free-atom electrostatic energy:        -214.22820351 Ha       -5829.44601643 eV
  | Hartree energy correction     :          -2.45774219 Ha         -66.87856782 eV
  | van der Waals energy corr.    :           0.00000000 Ha           0.00000000 eV
  | Entropy correction            :          -0.00010367 Ha          -0.00282095 eV
  | ---------------------------
  | Total energy                  :        -460.01429519 Ha      -12517.62586179 eV
  | Total energy, T -> 0          :        -460.01439885 Ha      -12517.62868274 eV  <-- do not rely on this value for anything but (periodic) metals
  | Electronic free energy        :        -460.01450252 Ha      -12517.63150369 eV

  Derived energy quantities:
  | Kinetic energy                :         457.40477948 Ha       12446.61732662 eV
  | Electrostatic energy          :        -862.05023613 Ha      -23457.58043362 eV
  | Energy correction for multipole
  | error in Hartree potential    :           0.00022618 Ha           0.00615474 eV
  | Sum of eigenvalues per atom                           :        -370.55999186 eV
  | Total energy (T->0) per atom                          :        -658.82256225 eV  <-- do not rely on this value for anything but (periodic) metals
  | Electronic free energy per atom                       :        -658.82271072 eV

  Self-consistency convergence accuracy:
  | Change of charge density      : 0.6913E+00
  | Change of sum of eigenvalues  : 0.6851E+02 eV
  | Change of total energy        : 0.3831E+01 eV

  End self-consistency iteration #     1       :  max(cpu_time)    wall_clock(cpu1)
  | Time for this iteration                    :        3.090 s           3.090 s
  | Charge density update                      :        1.018 s           1.018 s
  | Density mixing                             :        0.004 s           0.004 s
  | Hartree multipole update                   :        0.006 s           0.007 s
  | Hartree multipole summation                :        0.510 s           0.511 s
  | Integration                                :        1.458 s           1.457 s
  | Solution of K.-S. eqns.                    :        0.091 s           0.091 s
  | Total energy evaluation                    :        0.000 s           0.000 s
------------------------------------------------------------

------------------------------------------------------------
          Begin self-consistency iteration #    2

  Date     :  20150727, Time     :  114924.762
------------------------------------------------------------
  Evaluating new KS density.
  Integration grid: deviation in total charge (<rho> - N_e) =  -4.663434E-10
  Pulay mixing of updated and previous charge densities.

  Evaluating partitioned Hartree potential by multipole expansion.
  | Analytical far-field extrapolation by fixed multipoles:
  | Hartree multipole sum: apparent total charge =  -0.542669E-05
  Summing up the Hartree potential.
  Time summed over all CPUs for potential: real work        4.063 s, elapsed        4.073 s
  | RMS charge density error from multipole expansion :   0.747820E-02

  Integrating Hamiltonian matrix: batch-based integration.
  Time summed over all CPUs for integration: real work       11.431 s, elapsed       11.608 s

  Updating Kohn-Sham eigenvalues, eigenvectors, occupation numbers, and Fermi level.
  Solving generalized eigenproblem
  Updating Kohn-Sham eigenvalues and eigenfunctions.
  Solving real generalised eigenvalue problem by standard LAPACK (fast)
  Determining occupation numbers for Kohn-Sham eigenstates.
  | Chemical potential (Fermi level) in eV                 : -.19558227E+01
  | Error in electron count due to remaining E_F inaccuracy: -.73804074E-10
  | Maximum occupation number of highest empty state:  0.00E+00

  Highest occupied state (VBM) at     -7.56859858 eV
  | Occupation number:      2.00000000

  Lowest unoccupied state (CBM) at    -1.95582275 eV
  | Occupation number:      1.00000000

  Overall HOMO-LUMO gap:      5.61277584 eV.

  Total energy components:
  | Sum of eigenvalues            :        -252.59881562 Ha       -6873.56349613 eV
  | XC energy correction          :         -56.04527434 Ha       -1525.06950953 eV
  | XC potential correction       :          71.66048862 Ha        1949.98110942 eV
  | Free-atom electrostatic energy:        -214.22820351 Ha       -5829.44601643 eV
  | Hartree energy correction     :          -8.64177511 Ha        -235.15466538 eV
  | van der Waals energy corr.    :           0.00000000 Ha           0.00000000 eV
  | Entropy correction            :          -0.00010367 Ha          -0.00282095 eV
  | ---------------------------
  | Total energy                  :        -459.85357996 Ha      -12513.25257805 eV
  | Total energy, T -> 0          :        -459.85368363 Ha      -12513.25539900 eV  <-- do not rely on this value for anything but (periodic) metals
  | Electronic free energy        :        -459.85378730 Ha      -12513.25821994 eV

  Derived energy quantities:
  | Kinetic energy                :         460.79617467 Ha       12538.90188515 eV
  | Electrostatic energy          :        -864.60448029 Ha      -23527.08495367 eV
  | Energy correction for multipole
  | error in Hartree potential    :          -0.00027437 Ha          -0.00746587 eV
  | Sum of eigenvalues per atom                           :        -361.76649980 eV
  | Total energy (T->0) per atom                          :        -658.59238942 eV  <-- do not rely on this value for anything but (periodic) metals
  | Electronic free energy per atom                       :        -658.59253789 eV

  Self-consistency convergence accuracy:
  | Change of charge density      : 0.5261E+00
  | Change of sum of eigenvalues  : 0.1671E+03 eV
  | Change of total energy        : 0.4373E+01 eV

  End self-consistency iteration #     2       :  max(cpu_time)    wall_clock(cpu1)
  | Time for this iteration                    :        3.081 s           3.080 s
  | Charge density update                      :        1.012 s           1.012 s
  | Density mixing                             :        0.007 s           0.007 s
  | Hartree multipole update                   :        0.007 s           0.007 s
  | Hartree multipole summation                :        0.510 s           0.510 s
  | Integration                                :        1.453 s           1.453 s
  | Solution of K.-S. eqns.                    :        0.091 s           0.091 s
  | Total energy evaluation                    :        0.001 s           0.000 s
------------------------------------------------------------

------------------------------------------------------------
          Begin self-consistency iteration #    3

  Date     :  20150727, Time     :  114927.842
------------------------------------------------------------
  Evaluating new KS density.
  Integration grid: deviation in total charge (<rho> - N_e) =  -7.376144E-11
  Pulay mixing of updated and previous charge densities.

  Evaluating partitioned Hartree potential by multipole expansion.
  | Analytical far-field extrapolation by fixed multipoles:
  | Hartree multipole sum: apparent total charge =  -0.585263E-05
  Summing up the Hartree potential.
  Time summed over all CPUs for potential: real work        4.064 s, elapsed        4.075 s
  | RMS charge density error from multipole expansion :   0.155452E-01

  Integrating Hamiltonian matrix: batch-based integration.
  Time summed over all CPUs for integration: real work       11.441 s, elapsed       11.644 s

  Updating Kohn-Sham eigenvalues, eigenvectors, occupation numbers, and Fermi level.
  Solving generalized eigenproblem
  Updating Kohn-Sham eigenvalues and eigenfunctions.
  Solving real generalised eigenvalue problem by standard LAPACK (fast)
  Determining occupation numbers for Kohn-Sham eigenstates.
  | Chemical potential (Fermi level) in eV                 : -.18722432E+01
  | Error in electron count due to remaining E_F inaccuracy: 0.11496581E-09
  | Maximum occupation number of highest empty state:  0.00E+00

  Highest occupied state (VBM) at     -1.87224322 eV
  | Occupation number:      1.00000000

  Lowest unoccupied state (CBM) at    -1.24636569 eV
  | Occupation number:      0.00000000

  Overall HOMO-LUMO gap:      0.62587752 eV.

  Total energy components:
  | Sum of eigenvalues            :        -252.81167137 Ha       -6879.35559578 eV
  | XC energy correction          :         -56.05468787 Ha       -1525.32566477 eV
  | XC potential correction       :          71.66262765 Ha        1950.03931538 eV
  | Free-atom electrostatic energy:        -214.22820351 Ha       -5829.44601643 eV
  | Hartree energy correction     :          -8.41999622 Ha        -229.11975473 eV
  | van der Waals energy corr.    :           0.00000000 Ha           0.00000000 eV
  | Entropy correction            :          -0.00010367 Ha          -0.00282095 eV
  | ---------------------------
  | Total energy                  :        -459.85193132 Ha      -12513.20771633 eV
  | Total energy, T -> 0          :        -459.85203499 Ha      -12513.21053728 eV  <-- do not rely on this value for anything but (periodic) metals
  | Electronic free energy        :        -459.85213866 Ha      -12513.21335823 eV

  Derived energy quantities:
  | Kinetic energy                :         458.62255582 Ha       12479.75470690 eV
  | Electrostatic energy          :        -862.41979927 Ha      -23467.63675846 eV
  | Energy correction for multipole
  | error in Hartree potential    :          -0.00693921 Ha          -0.18882546 eV
  | Sum of eigenvalues per atom                           :        -362.07134715 eV
  | Total energy (T->0) per atom                          :        -658.59002828 eV  <-- do not rely on this value for anything but (periodic) metals
  | Electronic free energy per atom                       :        -658.59017675 eV

  Self-consistency convergence accuracy:
  | Change of charge density      : 0.2533E+00
  | Change of sum of eigenvalues  : -.5792E+01 eV
  | Change of total energy        : 0.4486E-01 eV

  End self-consistency iteration #     3       :  max(cpu_time)    wall_clock(cpu1)
  | Time for this iteration                    :        3.084 s           3.084 s
  | Charge density update                      :        1.009 s           1.010 s
  | Density mixing                             :        0.009 s           0.008 s
  | Hartree multipole update                   :        0.006 s           0.007 s
  | Hartree multipole summation                :        0.511 s           0.510 s
  | Integration                                :        1.457 s           1.458 s
  | Solution of K.-S. eqns.                    :        0.091 s           0.091 s
  | Total energy evaluation                    :        0.000 s           0.000 s
------------------------------------------------------------

------------------------------------------------------------
          Begin self-consistency iteration #    4

  Date     :  20150727, Time     :  114930.926
------------------------------------------------------------
  Evaluating new KS density.
  Integration grid: deviation in total charge (<rho> - N_e) =   1.150084E-10
  Pulay mixing of updated and previous charge densities.

  Evaluating partitioned Hartree potential by multipole expansion.
  | Analytical far-field extrapolation by fixed multipoles:
  | Hartree multipole sum: apparent total charge =  -0.672848E-05
  Summing up the Hartree potential.
  Time summed over all CPUs for potential: real work        4.063 s, elapsed        4.074 s
  | RMS charge density error from multipole expansion :   0.186566E-01

  Integrating Hamiltonian matrix: batch-based integration.
  Time summed over all CPUs for integration: real work       11.438 s, elapsed       11.632 s

  Updating Kohn-Sham eigenvalues, eigenvectors, occupation numbers, and Fermi level.
  Solving generalized eigenproblem
  Updating Kohn-Sham eigenvalues and eigenfunctions.
  Solving real generalised eigenvalue problem by standard LAPACK (fast)
  Determining occupation numbers for Kohn-Sham eigenstates.
  | Chemical potential (Fermi level) in eV                 : -.17615857E+01
  | Error in electron count due to remaining E_F inaccuracy: -.49453774E-11
  | Maximum occupation number of highest empty state:  0.00E+00

  Highest occupied state (VBM) at     -6.90044349 eV
  | Occupation number:      2.00000000

  Lowest unoccupied state (CBM) at    -1.76158567 eV
  | Occupation number:      1.00000000

  Overall HOMO-LUMO gap:      5.13885782 eV.

  Total energy components:
  | Sum of eigenvalues            :        -251.64621756 Ha       -6847.64198393 eV
  | XC energy correction          :         -56.20580057 Ha       -1529.43765053 eV
  | XC potential correction       :          71.85732565 Ha        1955.33731736 eV
  | Free-atom electrostatic energy:        -214.22820351 Ha       -5829.44601643 eV
  | Hartree energy correction     :          -9.62368638 Ha        -261.87383044 eV
  | van der Waals energy corr.    :           0.00000000 Ha           0.00000000 eV
  | Entropy correction            :          -0.00010367 Ha          -0.00282095 eV
  | ---------------------------
  | Total energy                  :        -459.84658237 Ha      -12513.06216397 eV
  | Total energy, T -> 0          :        -459.84668604 Ha      -12513.06498492 eV  <-- do not rely on this value for anything but (periodic) metals
  | Electronic free energy        :        -459.84678971 Ha      -12513.06780587 eV

  Derived energy quantities:
  | Kinetic energy                :         458.74956553 Ha       12483.21081693 eV
  | Electrostatic energy          :        -862.39034733 Ha      -23466.83533037 eV
  | Energy correction for multipole
  | error in Hartree potential    :          -0.00878591 Ha          -0.23907681 eV
  | Sum of eigenvalues per atom                           :        -360.40220968 eV
  | Total energy (T->0) per atom                          :        -658.58236763 eV  <-- do not rely on this value for anything but (periodic) metals
  | Electronic free energy per atom                       :        -658.58251610 eV

  Self-consistency convergence accuracy:
  | Change of charge density      : 0.1103E+00
  | Change of sum of eigenvalues  : 0.3171E+02 eV
  | Change of total energy        : 0.1456E+00 eV

  End self-consistency iteration #     4       :  max(cpu_time)    wall_clock(cpu1)
  | Time for this iteration                    :        3.085 s           3.085 s
  | Charge density update                      :        1.011 s           1.010 s
  | Density mixing                             :        0.010 s           0.010 s
  | Hartree multipole update                   :        0.006 s           0.006 s
  | Hartree multipole summation                :        0.510 s           0.510 s
  | Integration                                :        1.457 s           1.457 s
  | Solution of K.-S. eqns.                    :        0.091 s           0.090 s
  | Total energy evaluation                    :        0.000 s           0.000 s
------------------------------------------------------------

------------------------------------------------------------
          Begin self-consistency iteration #    5

  Date     :  20150727, Time     :  114934.011
------------------------------------------------------------
  Evaluating new KS density.
  Integration grid: deviation in total charge (<rho> - N_e) =  -4.867218E-12
  Pulay mixing of updated and previous charge densities.

  Evaluating partitioned Hartree potential by multipole expansion.
  | Analytical far-field extrapolation by fixed multipoles:
  | Hartree multipole sum: apparent total charge =  -0.688587E-05
  Summing up the Hartree potential.
  Time summed over all CPUs for potential: real work        4.062 s, elapsed        4.072 s
  | RMS charge density error from multipole expansion :   0.195245E-01

  Integrating Hamiltonian matrix: batch-based integration.
  Time summed over all CPUs for integration: real work       11.435 s, elapsed       11.627 s

  Updating Kohn-Sham eigenvalues, eigenvectors, occupation numbers, and Fermi level.
  Solving generalized eigenproblem
  Updating Kohn-Sham eigenvalues and eigenfunctions.
  Solving real generalised eigenvalue problem by standard LAPACK (fast)
  Determining occupation numbers for Kohn-Sham eigenstates.
  | Chemical potential (Fermi level) in eV                 : -.17525414E+01
  | Error in electron count due to remaining E_F inaccuracy: 0.65186612E-09
  | Maximum occupation number of highest empty state:  0.00E+00

  Highest occupied state (VBM) at     -1.75254138 eV
  | Occupation number:      1.00000000

  Lowest unoccupied state (CBM) at    -1.12153266 eV
  | Occupation number:      0.00000000

  Overall HOMO-LUMO gap:      0.63100871 eV.

  Total energy components:
  | Sum of eigenvalues            :        -251.47907682 Ha       -6843.09385310 eV
  | XC energy correction          :         -56.23061519 Ha       -1530.11289048 eV
  | XC potential correction       :          71.88877566 Ha        1956.19311575 eV
  | Free-atom electrostatic energy:        -214.22820351 Ha       -5829.44601643 eV
  | Hartree energy correction     :          -9.79716688 Ha        -266.59447508 eV
  | van der Waals energy corr.    :           0.00000000 Ha           0.00000000 eV
  | Entropy correction            :          -0.00010367 Ha          -0.00282095 eV
  | ---------------------------
  | Total energy                  :        -459.84628674 Ha      -12513.05411934 eV
  | Total energy, T -> 0          :        -459.84639041 Ha      -12513.05694029 eV  <-- do not rely on this value for anything but (periodic) metals
  | Electronic free energy        :        -459.84649407 Ha      -12513.05976124 eV

  Derived energy quantities:
  | Kinetic energy                :         458.75588064 Ha       12483.38265975 eV
  | Electrostatic energy          :        -862.37155219 Ha      -23466.32388862 eV
  | Energy correction for multipole
  | error in Hartree potential    :          -0.00962301 Ha          -0.26185541 eV
  | Sum of eigenvalues per atom                           :        -360.16283437 eV
  | Total energy (T->0) per atom                          :        -658.58194423 eV  <-- do not rely on this value for anything but (periodic) metals
  | Electronic free energy per atom                       :        -658.58209270 eV

  Self-consistency convergence accuracy:
  | Change of charge density      : 0.3554E-01
  | Change of sum of eigenvalues  : 0.4548E+01 eV
  | Change of total energy        : 0.8045E-02 eV

  End self-consistency iteration #     5       :  max(cpu_time)    wall_clock(cpu1)
  | Time for this iteration                    :        3.087 s           3.086 s
  | Charge density update                      :        1.010 s           1.010 s
  | Density mixing                             :        0.012 s           0.012 s
  | Hartree multipole update                   :        0.007 s           0.006 s
  | Hartree multipole summation                :        0.510 s           0.510 s
  | Integration                                :        1.456 s           1.456 s
  | Solution of K.-S. eqns.                    :        0.091 s           0.092 s
  | Total energy evaluation                    :        0.000 s           0.000 s
------------------------------------------------------------

------------------------------------------------------------
          Begin self-consistency iteration #    6

  Date     :  20150727, Time     :  114937.097
------------------------------------------------------------
  Evaluating new KS density.
  Integration grid: deviation in total charge (<rho> - N_e) =   6.518590E-10
  Pulay mixing of updated and previous charge densities.

  Evaluating partitioned Hartree potential by multipole expansion.
  | Analytical far-field extrapolation by fixed multipoles:
  | Hartree multipole sum: apparent total charge =  -0.691225E-05
  Summing up the Hartree potential.
  Time summed over all CPUs for potential: real work        4.062 s, elapsed        4.072 s
  | RMS charge density error from multipole expansion :   0.198480E-01

  Integrating Hamiltonian matrix: batch-based integration.
  Time summed over all CPUs for integration: real work       11.431 s, elapsed       11.636 s

  Updating Kohn-Sham eigenvalues, eigenvectors, occupation numbers, and Fermi level.
  Solving generalized eigenproblem
  Updating Kohn-Sham eigenvalues and eigenfunctions.
  Solving real generalised eigenvalue problem by standard LAPACK (fast)
  Determining occupation numbers for Kohn-Sham eigenstates.
  | Chemical potential (Fermi level) in eV                 : -.17545796E+01
  | Error in electron count due to remaining E_F inaccuracy: -.85265128E-13
  | Maximum occupation number of highest empty state:  0.00E+00

  Highest occupied state (VBM) at     -6.72272749 eV
  | Occupation number:      2.00000000

  Lowest unoccupied state (CBM) at    -1.75457961 eV
  | Occupation number:      1.00000000

  Overall HOMO-LUMO gap:      4.96814788 eV.

  Total energy components:
  | Sum of eigenvalues            :        -251.46258724 Ha       -6842.64514880 eV
  | XC energy correction          :         -56.23521208 Ha       -1530.23797847 eV
  | XC potential correction       :          71.89438720 Ha        1956.34581351 eV
  | Free-atom electrostatic energy:        -214.22820351 Ha       -5829.44601643 eV
  | Hartree energy correction     :          -9.81472208 Ha        -267.07217635 eV
  | van der Waals energy corr.    :           0.00000000 Ha           0.00000000 eV
  | Entropy correction            :          -0.00010367 Ha          -0.00282095 eV
  | ---------------------------
  | Total energy                  :        -459.84633772 Ha      -12513.05550654 eV
  | Total energy, T -> 0          :        -459.84644139 Ha      -12513.05832749 eV  <-- do not rely on this value for anything but (periodic) metals
  | Electronic free energy        :        -459.84654505 Ha      -12513.06114844 eV

  Derived energy quantities:
  | Kinetic energy                :         458.73205783 Ha       12482.73440811 eV
  | Electrostatic energy          :        -862.34318346 Ha      -23465.55193618 eV
  | Energy correction for multipole
  | error in Hartree potential    :          -0.00997267 Ha          -0.27137023 eV
  | Sum of eigenvalues per atom                           :        -360.13921836 eV
  | Total energy (T->0) per atom                          :        -658.58201724 eV  <-- do not rely on this value for anything but (periodic) metals
  | Electronic free energy per atom                       :        -658.58216571 eV

  Self-consistency convergence accuracy:
  | Change of charge density      : 0.8270E-02
  | Change of sum of eigenvalues  : 0.4487E+00 eV
  | Change of total energy        : -.1387E-02 eV

  End self-consistency iteration #     6       :  max(cpu_time)    wall_clock(cpu1)
  | Time for this iteration                    :        3.090 s           3.089 s
  | Charge density update                      :        1.011 s           1.011 s
  | Density mixing                             :        0.014 s           0.014 s
  | Hartree multipole update                   :        0.006 s           0.006 s
  | Hartree multipole summation                :        0.510 s           0.510 s
  | Integration                                :        1.457 s           1.457 s
  | Solution of K.-S. eqns.                    :        0.091 s           0.091 s
  | Total energy evaluation                    :        0.001 s           0.000 s
------------------------------------------------------------

------------------------------------------------------------
          Begin self-consistency iteration #    7

  Date     :  20150727, Time     :  114940.186
------------------------------------------------------------
  Evaluating new KS density.
  Integration grid: deviation in total charge (<rho> - N_e) =  -9.947598E-14
  Pulay mixing of updated and previous charge densities.

  Evaluating partitioned Hartree potential by multipole expansion.
  | Analytical far-field extrapolation by fixed multipoles:
  | Hartree multipole sum: apparent total charge =  -0.684339E-05
  Summing up the Hartree potential.
  Time summed over all CPUs for potential: real work        4.062 s, elapsed        4.072 s
  | RMS charge density error from multipole expansion :   0.198160E-01

  Integrating Hamiltonian matrix: batch-based integration.
  Time summed over all CPUs for integration: real work       11.433 s, elapsed       11.617 s

  Updating Kohn-Sham eigenvalues, eigenvectors, occupation numbers, and Fermi level.
  Solving generalized eigenproblem
  Updating Kohn-Sham eigenvalues and eigenfunctions.
  Solving real generalised eigenvalue problem by standard LAPACK (fast)
  Determining occupation numbers for Kohn-Sham eigenstates.
  | Chemical potential (Fermi level) in eV                 : -.17760167E+01
  | Error in electron count due to remaining E_F inaccuracy: 0.61232441E-09
  | Maximum occupation number of highest empty state:  0.00E+00

  Highest occupied state (VBM) at     -1.77601667 eV
  | Occupation number:      1.00000000

  Lowest unoccupied state (CBM) at    -1.14920877 eV
  | Occupation number:      0.00000000

  Overall HOMO-LUMO gap:      0.62680791 eV.

  Total energy components:
  | Sum of eigenvalues            :        -251.56444613 Ha       -6845.41687005 eV
  | XC energy correction          :         -56.22440838 Ha       -1529.94399470 eV
  | XC potential correction       :          71.88005560 Ha        1955.95583091 eV
  | Free-atom electrostatic energy:        -214.22820351 Ha       -5829.44601643 eV
  | Hartree energy correction     :          -9.70928917 Ha        -264.20320092 eV
  | van der Waals energy corr.    :           0.00000000 Ha           0.00000000 eV
  | Entropy correction            :          -0.00010367 Ha          -0.00282095 eV
  | ---------------------------
  | Total energy                  :        -459.84629158 Ha      -12513.05425118 eV
  | Total energy, T -> 0          :        -459.84639525 Ha      -12513.05707213 eV  <-- do not rely on this value for anything but (periodic) metals
  | Electronic free energy        :        -459.84649892 Ha      -12513.05989308 eV

  Derived energy quantities:
  | Kinetic energy                :         458.76888658 Ha       12483.73656941 eV
  | Electrostatic energy          :        -862.39076979 Ha      -23466.84682589 eV
  | Energy correction for multipole
  | error in Hartree potential    :          -0.01023003 Ha          -0.27837334 eV
  | Sum of eigenvalues per atom                           :        -360.28509842 eV
  | Total energy (T->0) per atom                          :        -658.58195116 eV  <-- do not rely on this value for anything but (periodic) metals
  | Electronic free energy per atom                       :        -658.58209964 eV

  Self-consistency convergence accuracy:
  | Change of charge density      : 0.7591E-02
  | Change of sum of eigenvalues  : -.2772E+01 eV
  | Change of total energy        : 0.1255E-02 eV

  End self-consistency iteration #     7       :  max(cpu_time)    wall_clock(cpu1)
  | Time for this iteration                    :        3.085 s           3.085 s
  | Charge density update                      :        1.007 s           1.008 s
  | Density mixing                             :        0.016 s           0.015 s
  | Hartree multipole update                   :        0.006 s           0.007 s
  | Hartree multipole summation                :        0.510 s           0.509 s
  | Integration                                :        1.455 s           1.455 s
  | Solution of K.-S. eqns.                    :        0.090 s           0.090 s
  | Total energy evaluation                    :        0.001 s           0.001 s
------------------------------------------------------------

------------------------------------------------------------
          Begin self-consistency iteration #    8

  Date     :  20150727, Time     :  114943.271
------------------------------------------------------------
  Evaluating new KS density.
  Integration grid: deviation in total charge (<rho> - N_e) =   6.123528E-10
  Pulay mixing of updated and previous charge densities.

  Evaluating partitioned Hartree potential by multipole expansion.
  | Analytical far-field extrapolation by fixed multipoles:
  | Hartree multipole sum: apparent total charge =  -0.681094E-05
  Summing up the Hartree potential.
  Time summed over all CPUs for potential: real work        4.062 s, elapsed        4.073 s
  | RMS charge density error from multipole expansion :   0.198447E-01

  Integrating Hamiltonian matrix: batch-based integration.
  Time summed over all CPUs for integration: real work       11.435 s, elapsed       11.611 s

  Updating Kohn-Sham eigenvalues, eigenvectors, occupation numbers, and Fermi level.
  Solving generalized eigenproblem
  Updating Kohn-Sham eigenvalues and eigenfunctions.
  Solving real generalised eigenvalue problem by standard LAPACK (fast)
  Determining occupation numbers for Kohn-Sham eigenstates.
  | Chemical potential (Fermi level) in eV                 : -.17808255E+01
  | Error in electron count due to remaining E_F inaccuracy: 0.59706906E-09
  | Maximum occupation number of highest empty state:  0.00E+00

  Highest occupied state (VBM) at     -1.78082554 eV
  | Occupation number:      1.00000000

  Lowest unoccupied state (CBM) at    -1.14969975 eV
  | Occupation number:      0.00000000

  Overall HOMO-LUMO gap:      0.63112579 eV.

  Total energy components:
  | Sum of eigenvalues            :        -251.58978744 Ha       -6846.10644241 eV
  | XC energy correction          :         -56.22242417 Ha       -1529.89000149 eV
  | XC potential correction       :          71.87736906 Ha        1955.88272647 eV
  | Free-atom electrostatic energy:        -214.22820351 Ha       -5829.44601643 eV
  | Hartree energy correction     :          -9.68324483 Ha        -263.49449823 eV
  | van der Waals energy corr.    :           0.00000000 Ha           0.00000000 eV
  | Entropy correction            :          -0.00010367 Ha          -0.00282095 eV
  | ---------------------------
  | Total energy                  :        -459.84629088 Ha      -12513.05423209 eV
  | Total energy, T -> 0          :        -459.84639455 Ha      -12513.05705304 eV  <-- do not rely on this value for anything but (periodic) metals
  | Electronic free energy        :        -459.84649822 Ha      -12513.05987399 eV

  Derived energy quantities:
  | Kinetic energy                :         458.77555012 Ha       12483.91789361 eV
  | Electrostatic energy          :        -862.39941684 Ha      -23467.08212422 eV
  | Energy correction for multipole
  | error in Hartree potential    :          -0.01033063 Ha          -0.28111079 eV
  | Sum of eigenvalues per atom                           :        -360.32139171 eV
  | Total energy (T->0) per atom                          :        -658.58195016 eV  <-- do not rely on this value for anything but (periodic) metals
  | Electronic free energy per atom                       :        -658.58209863 eV

  Self-consistency convergence accuracy:
  | Change of charge density      : 0.2164E-02
  | Change of sum of eigenvalues  : -.6896E+00 eV
  | Change of total energy        : 0.1909E-04 eV

  End self-consistency iteration #     8       :  max(cpu_time)    wall_clock(cpu1)
  | Time for this iteration                    :        3.086 s           3.086 s
  | Charge density update                      :        1.008 s           1.008 s
  | Density mixing                             :        0.017 s           0.017 s
  | Hartree multipole update                   :        0.006 s           0.006 s
  | Hartree multipole summation                :        0.510 s           0.510 s
[...]
   Hellmann-Feynman + Multipole  : 0.100544E+01 -.103019E+01 0.218998E+00
   Pulay + GGA                   : -.502980E-01 0.685285E-01 0.526266E-02
   Van der Waals               : 0.836075E-03 -.112140E-02 -.503680E-02
   ----------------------------------------------------------------
   Total forces(  16)            : 0.955975E+00 -.962782E+00 0.219224E+00
  atom #   17
   Hellmann-Feynman + Multipole  : -.147329E+01 -.125756E+02 -.800416E+00
   Pulay + GGA                   : 0.228254E+01 0.125890E+02 -.767718E+00
   Van der Waals               : -.133541E-03 -.522492E-02 -.633285E-02
   ----------------------------------------------------------------
   Total forces(  17)            : 0.809114E+00 0.818002E-02 -.157447E+01
  atom #   18
   Hellmann-Feynman + Multipole  : -.376449E+00 0.707080E+00 0.429433E+00
   Pulay + GGA                   : -.877546E-01 0.922584E-01 0.820678E-01
   Van der Waals               : 0.665966E-03 -.170397E-02 -.160786E-02
   ----------------------------------------------------------------
   Total forces(  18)            : -.463538E+00 0.797634E+00 0.509893E+00
  atom #   19
   Hellmann-Feynman + Multipole  : -.687485E+00 -.603527E+00 0.101677E+01
   Pulay + GGA                   : 0.765210E-01 0.767427E-01 -.136680E+00
   Van der Waals               : 0.109472E-02 -.487023E-02 -.172419E-02
   ----------------------------------------------------------------
   Total forces(  19)            : -.609870E+00 -.531655E+00 0.878369E+00
  Timings for vdw_correction_hirshfeld (Tkatchenko-Scheffler 2009):
  | CPU time:        8.443 s, Wall clock time:        8.443 s.
  Removing unitary transformations (pure translations, rotations) from forces on atoms.
  Atomic forces before filtering:
  | Net force on center of mass :  0.861068E-02 0.978018E-03 0.310662E-02 eV/A
  | Net torque on center of mass:  0.603516E-02 0.492052E-02 -.549638E-02 eV
  Atomic forces after filtering:
  | Net force on center of mass :  -.713624E-15 -.267609E-15 -.535218E-15 eV/A
  | Net torque on center of mass:  0.434279E-14 0.755268E-15 0.169935E-14 eV
 
  Energy and forces in a compact form:
  | Total energy uncorrected      :         -0.125131709603712E+05 eV
  | Total energy corrected        :         -0.125131737813191E+05 eV  <-- do not rely on this value for anything but (periodic) metals
  | Electronic free energy        :         -0.125131766022670E+05 eV
  Total atomic forces (unitary forces cleaned) [eV/Ang]:
  |   1         -0.943172324328199E+00          0.124228414697547E+01         -0.127751482611564E+01
  |   2          0.441885688632282E+00         -0.102514559141295E+01          0.337221966055274E+00
  |   3          0.241958501183138E+00         -0.158197347035365E+00         -0.477444629603318E-01
  |   4         -0.490146406844778E-01         -0.158339691611093E+00          0.703691221389364E+00
  |   5         -0.812356980960721E+00         -0.236939645893982E+01         -0.140417833135879E+01
  |   6          0.174136984238903E+00          0.175143328970760E+01          0.140671869315964E+01
  |   7          0.507058169494895E+00          0.595328885831961E+00          0.115527800286408E+00
  |   8          0.357214052573026E+00         -0.707584320919697E+00          0.288466392929933E+01
  |   9          0.359986858769357E-01          0.185227714909483E+00          0.945301384640195E-02
  |  10         -0.326871939859719E+00          0.464713025909162E+00         -0.281554095211061E+01
  |  11          0.164783714218305E+01          0.425990731464618E-01          0.108091557771260E+01
  |  12         -0.142583768128576E+00         -0.433442559914267E+00         -0.749618301088564E+00
  |  13         -0.119634645670134E+01          0.648006459447120E+00         -0.260768495564213E+00
  |  14         -0.358268790577700E+00          0.378227061829577E+00          0.201879556327244E+01
  |  15         -0.266526007235287E+00          0.233087513390756E+00         -0.203332187427448E+01
  |  16          0.955372058708428E+00         -0.962735682701760E+00          0.218979669202994E+00
  |  17          0.808462205008523E+00          0.811056852141013E-02         -0.157480253660818E+01
  |  18         -0.464252509315877E+00          0.797559900905824E+00          0.509502286560363E+00
  |  19         -0.610530070107290E+00         -0.531735988039867E+00          0.878020059295983E+00
 
  ------------------------------------ 
  Start decomposition of the XC Energy 
  ------------------------------------ 
  Hartree-Fock part   :          0.000000000 Ha              0.000000000 eV
  ------------------------------------ 
  X Energy            :        -54.228280180 Ha          -1475.626582764 eV
  C Energy GGA        :         -1.994814104 Ha            -54.281653587 eV
  Total XC Energy     :        -56.223094284 Ha          -1529.908236351 eV
  LDA X and C from self-consistent density 
  X Energy LDA        :        -48.901686668 Ha          -1330.682598611 eV
  C Energy LDA        :         -4.002128742 Ha           -108.903464014 eV
  ------------------------------------ 
  End decomposition of the XC Energy 
  ------------------------------------ 
  Performing Hirshfeld analysis of fragment charges and moments.
  ----------------------------------------------------------------------
  | Atom     1: O
  |   Hirshfeld charge        :     -0.15563927
  |   Free atom volume        :     23.95238533
  |   Hirshfeld volume        :     21.04697468
  |   Hirshfeld dipole vector :      0.00489722       0.02621807       0.02475448
  |   Hirshfeld dipole moment :      0.03638894
  |   Hirshfeld second moments:      0.08647090      -0.00763023      -0.00607101
  |                                 -0.00763023       0.05307489      -0.02237659
  |                                 -0.00607101      -0.02237659       0.06745352
  ----------------------------------------------------------------------
  | Atom     2: H
  |   Hirshfeld charge        :      0.11466868
  |   Free atom volume        :     10.44207651
  |   Hirshfeld volume        :      9.02544527
  |   Hirshfeld dipole vector :     -0.00840594       0.00928099      -0.00313593
  |   Hirshfeld dipole moment :      0.01290855
  |   Hirshfeld second moments:      0.05743593       0.01993983      -0.00373879
  |                                  0.01993983       0.03123321       0.01421331
  |                                 -0.00373879       0.01421331       0.07590137
  ----------------------------------------------------------------------
  | Atom     3: H
  |   Hirshfeld charge        :      0.10486659
  |   Free atom volume        :     10.44207651
  |   Hirshfeld volume        :      8.96058170
  |   Hirshfeld dipole vector :      0.01862381       0.00026485       0.00768153
  |   Hirshfeld dipole moment :      0.02014752
  |   Hirshfeld second moments:      0.02697897      -0.02128615      -0.00111793
  |                                 -0.02128615       0.06549783       0.00432702
  |                                 -0.00111793       0.00432702       0.07418687
  ----------------------------------------------------------------------
  | Atom     4: H
  |   Hirshfeld charge        :      0.11109212
  |   Free atom volume        :     10.44207651
  |   Hirshfeld volume        :      8.46410346
  |   Hirshfeld dipole vector :     -0.01649370      -0.00109115       0.01937907
  |   Hirshfeld dipole moment :      0.02547118
  |   Hirshfeld second moments:      0.08598529       0.00596324       0.01151504
  |                                  0.00596324       0.08235452       0.00616239
  |                                  0.01151504       0.00616239       0.02558465
  ----------------------------------------------------------------------
  | Atom     5: O
  |   Hirshfeld charge        :     -0.23178274
  |   Free atom volume        :     23.95238533
  |   Hirshfeld volume        :     21.34647963
  |   Hirshfeld dipole vector :     -0.02406704       0.02482206      -0.00334277
  |   Hirshfeld dipole moment :      0.03473516
  |   Hirshfeld second moments:      0.04534631       0.04433605      -0.01349030
  |                                  0.04433605       0.04043401       0.00884075
  |                                 -0.01349030       0.00884075       0.06194919
  ----------------------------------------------------------------------
  | Atom     6: H
  |   Hirshfeld charge        :      0.09424214
  |   Free atom volume        :     10.44207651
  |   Hirshfeld volume        :      8.73566765
  |   Hirshfeld dipole vector :      0.00477009       0.02523932       0.02653140
  |   Hirshfeld dipole moment :      0.03692821
  |   Hirshfeld second moments:      0.06512521      -0.00192291      -0.01128871
  |                                 -0.00192291       0.03263571      -0.02102367
  |                                 -0.01128871      -0.02102367       0.07257293
  ----------------------------------------------------------------------
  | Atom     7: H
  |   Hirshfeld charge        :      0.14908741
  |   Free atom volume        :     10.44207651
  |   Hirshfeld volume        :      7.93116120
  |   Hirshfeld dipole vector :     -0.08496609      -0.05133997       0.02338571
  |   Hirshfeld dipole moment :      0.10198981
  |   Hirshfeld second moments:      0.07577325       0.00920638      -0.00022347
  |                                  0.00920638       0.09033587       0.01010560
  |                                 -0.00022347       0.01010560       0.10058206
  ----------------------------------------------------------------------
  | Atom     8: O
  |   Hirshfeld charge        :     -0.21367585
  |   Free atom volume        :     23.95238533
  |   Hirshfeld volume        :     22.64520793
  |   Hirshfeld dipole vector :      0.03296988      -0.01430938      -0.01984857
  |   Hirshfeld dipole moment :      0.04105773
  |   Hirshfeld second moments:     -0.01485650       0.00348869       0.03732684
  |                                  0.00348869       0.04457858       0.00334784
  |                                  0.03732684       0.00334784       0.06159202
  ----------------------------------------------------------------------
  | Atom     9: H
  |   Hirshfeld charge        :      0.06443058
  |   Free atom volume        :     10.44207651
  |   Hirshfeld volume        :     13.29938579
  |   Hirshfeld dipole vector :      0.00458289      -0.01298264       0.02259013
  |   Hirshfeld dipole moment :      0.02645498
  |   Hirshfeld second moments:     -0.05465768      -0.03057221       0.00932383
  |                                 -0.03057221      -0.05230608      -0.00259280
  |                                  0.00932383      -0.00259280       0.03202500
  ----------------------------------------------------------------------
  | Atom    10: H
  |   Hirshfeld charge        :      0.11440281
  |   Free atom volume        :     10.44207651
  |   Hirshfeld volume        :     11.24947130
  |   Hirshfeld dipole vector :     -0.01445747      -0.01166830      -0.07528049
  |   Hirshfeld dipole moment :      0.07753915
  |   Hirshfeld second moments:      0.01527153      -0.00068039       0.01900868
  |                                 -0.00068039       0.03766184       0.00605379
  |                                  0.01900868       0.00605379       0.03384363
  ----------------------------------------------------------------------
  | Atom    11: O
  |   Hirshfeld charge        :     -0.22018346
  |   Free atom volume        :     23.95238533
  |   Hirshfeld volume        :     22.73338280
  |   Hirshfeld dipole vector :     -0.01406094      -0.03315894       0.03650410
  |   Hirshfeld dipole moment :      0.05128133
  |   Hirshfeld second moments:      0.04950910      -0.01549928       0.00556703
  |                                 -0.01549928       0.02139157       0.04656231
  |                                  0.00556703       0.04656231      -0.00539194
  ----------------------------------------------------------------------
  | Atom    12: H
  |   Hirshfeld charge        :      0.10004121
  |   Free atom volume        :     10.44207651
  |   Hirshfeld volume        :     11.54539508
  |   Hirshfeld dipole vector :     -0.00296996       0.01341773       0.05384938
  |   Hirshfeld dipole moment :      0.05557528
  |   Hirshfeld second moments:      0.04717004       0.00233845      -0.00709258
  |                                  0.00233845      -0.00604353       0.00469387
  |                                 -0.00709258       0.00469387       0.00344618
  ----------------------------------------------------------------------
  | Atom    13: H
  |   Hirshfeld charge        :      0.11707064
  |   Free atom volume        :     10.44207651
  |   Hirshfeld volume        :     10.47196844
  |   Hirshfeld dipole vector :      0.05067300      -0.05147125       0.00217633
  |   Hirshfeld dipole moment :      0.07226188
  |   Hirshfeld second moments:      0.04141548       0.00286629      -0.00626613
  |                                  0.00286629       0.04127694       0.02280274
  |                                 -0.00626613       0.02280274       0.03458604
  ----------------------------------------------------------------------
  | Atom    14: O
  |   Hirshfeld charge        :     -0.28729403
  |   Free atom volume        :     23.95238533
  |   Hirshfeld volume        :     22.91957966
  |   Hirshfeld dipole vector :     -0.05314699      -0.01325788       0.02235088
  |   Hirshfeld dipole moment :      0.05916025
  |   Hirshfeld second moments:     -0.03691035      -0.02759814       0.03394037
  |                                 -0.02759814       0.00771295       0.00453008
  |                                  0.03394037       0.00453008       0.03228913
  ----------------------------------------------------------------------
  | Atom    15: H
  |   Hirshfeld charge        :      0.11386261
  |   Free atom volume        :     10.44207651
  |   Hirshfeld volume        :      8.95686453
  |   Hirshfeld dipole vector :      0.00719846      -0.01464513       0.09416294
  |   Hirshfeld dipole moment :      0.09556651
  |   Hirshfeld second moments:      0.05983861      -0.01223717       0.01257514
  |                                 -0.01223717       0.07334452       0.00384921
  |                                  0.01257514       0.00384921       0.05926076
  ----------------------------------------------------------------------
  | Atom    16: H
  |   Hirshfeld charge        :      0.07263088
  |   Free atom volume        :     10.44207651
  |   Hirshfeld volume        :      9.59251116
  |   Hirshfeld dipole vector :     -0.03356068       0.01725742       0.00633043
  |   Hirshfeld dipole moment :      0.03826503
  |   Hirshfeld second moments:      0.01348253       0.00870465      -0.00399881
  |                                  0.00870465       0.03392172       0.01232206
  |                                 -0.00399881       0.01232206       0.06491282
  ----------------------------------------------------------------------
  | Atom    17: O
  |   Hirshfeld charge        :     -0.23579937
  |   Free atom volume        :     23.95238533
  |   Hirshfeld volume        :     22.69971293
  |   Hirshfeld dipole vector :      0.02891786       0.01721418       0.02501113
  |   Hirshfeld dipole moment :      0.04193003
  |   Hirshfeld second moments:      0.00488736      -0.03529014      -0.04092118
  |                                 -0.03529014       0.02366943      -0.00609462
  |                                 -0.04092118      -0.00609462       0.03288928
  ----------------------------------------------------------------------
  | Atom    18: H
  |   Hirshfeld charge        :      0.11679907
  |   Free atom volume        :     10.44207651
  |   Hirshfeld volume        :      9.91982513
  |   Hirshfeld dipole vector :     -0.04540274       0.05473818       0.05892947
  |   Hirshfeld dipole moment :      0.09235994
  |   Hirshfeld second moments:      0.05257804      -0.01180446      -0.01828881
  |                                 -0.01180446       0.04678636      -0.00575740
  |                                 -0.01828881      -0.00575740       0.05281660
  ----------------------------------------------------------------------
  | Atom    19: H
  |   Hirshfeld charge        :      0.07114897
  |   Free atom volume        :     10.44207651
  |   Hirshfeld volume        :     12.73412871
  |   Hirshfeld dipole vector :      0.01680295       0.00033192      -0.00838134
  |   Hirshfeld dipole moment :      0.01878021
  |   Hirshfeld second moments:     -0.03045855      -0.02764192       0.00215829
  |                                 -0.02764192       0.00365673       0.03633229
  |                                  0.00215829       0.03633229      -0.01123607
  ----------------------------------------------------------------------


------------------------------------------------------------------------------
  Final output of selected total energy values:

  The following output summarizes some interesting total energy values
  at the end of a run (AFTER all relaxation, molecular dynamics, etc.).

  | Total energy of the DFT / Hartree-Fock s.c.f. calculation      :         -12513.170960371 eV
  | Final zero-broadening corrected energy (caution - metals only) :         -12513.173781319 eV
  | For reference only, the value of 1 Hartree used in FHI-aims is :             27.211384500 eV

  Before relying on these values, please be sure to understand exactly which
  total energy value is referred to by a given number. Different objects may
  all carry the same name 'total energy'. Definitions:

  Total energy of the DFT / Hartree-Fock s.c.f. calculation:
  | Note that this energy does not include ANY quantities calculated after the
  | s.c.f. cycle, in particular not ANY RPA, MP2, etc. many-body perturbation terms.

  Final zero-broadening corrected energy:
  | For metallic systems only, a broadening of the occupation numbers at the Fermi
  | level can be extrapolated back to zero broadening by an electron-gas inspired
  | formula. For all systems that are not real metals, this value can be
  | meaningless and should be avoided.

------------------------------------------------------------------------------

------------------------------------------------------------
          Leaving FHI-aims.
          Date     :  20150727, Time     :  115020.599

          Computational steps:
          | Number of self-consistency cycles          :           17

          Detailed time accounting                     :  max(cpu_time)    wall_clock(cpu1)
          | Total time                                 :       62.649 s          62.689 s
          | Preparation time                           :        0.172 s           0.614 s
          | Grid partitioning                          :        0.212 s           0.211 s
          | Preloading free-atom quantities on grid    :        0.013 s           0.013 s
          | Free-atom superposition energy             :        0.099 s           0.099 s
          | Total time for integrations                :       26.979 s          26.980 s
          | Total time for solution of K.-S. equations :        1.874 s           1.882 s
          | Total time for density & force components  :       21.659 s          21.661 s
          | Total time for mixing                      :        0.283 s           0.281 s
          | Total time for Hartree multipole update    :        0.109 s           0.108 s
          | Total time for Hartree multipole sum       :       10.375 s          10.377 s
          | Total time for total energy evaluation     :        0.007 s           0.006 s
          | Total time for scaled ZORA corrections     :        0.000 s           0.000 s
          | Total time for TS (2009) vdW correction    :        0.080 s           0.079 s

          Have a nice day.
------------------------------------------------------------
