  MPI-parallelism will be employed.
------------------------------------------------------------
          Invoking FHI-aims ...
          Version 081213
          Compiled on 2013/08/29 at 17:41:06 on host generoso.

          When using FHI-aims, please cite the following reference:

          Volker Blum, Ralf Gehrke, Felix Hanke, Paula Havu,
          Ville Havu, Xinguo Ren, Karsten Reuter, and Matthias Scheffler,
          'Ab Initio Molecular Simulations with Numeric Atom-Centered Orbitals: FHI-aims',
          Computer Physics Communications 180, 2175-2196 (2009)

          For any questions about FHI-aims, please visit the aimsclub website
          with its forums and wiki. Contributions to both the forums and the
          wiki are warmly encouraged - they are for you, and everyone is welcome there.

------------------------------------------------------------

  Date     :  20150727, Time     :  115832.221
  Time zero on CPU 1             :   0.429930000000000E-01  s.
  Internal wall clock time zero  :           207230312.221  s.

  Using        8 parallel tasks.
  Task        0 on host gen59 reporting.
  Task        1 on host gen59 reporting.
  Task        2 on host gen59 reporting.
  Task        3 on host gen59 reporting.
  Task        4 on host gen59 reporting.
  Task        5 on host gen59 reporting.
  Task        6 on host gen59 reporting.
  Task        7 on host gen59 reporting.

  Performing system and environment tests:
  | Environment variable OMP_NUM_THREADS correctly set to 1.
  | Checking for scalapack...
  | No scalapack compiled in.

  Obtaining array dimensions for all initial allocations:
  
  -----------------------------------------------------------------------
  Parsing control.in (first pass over file, find array dimensions only).
  The contents of control.in will be repeated verbatim below
  unless switched off by setting 'verbatim_writeout .false.' .
  in the first line of control.in .
  -----------------------------------------------------------------------
  
  #########################################################################################
  #
  #  Volker Blum, FHI 2008 : Test run input file control.in
  #
  #########################################################################################
  #
  #  Physical model
  #
    xc                 rpbe
    spin               none
    relativistic       atomic_zora scalar
    charge             0.
   vdw_correction_hirshfeld
  #
  #  SCF convergence
  #
    occupation_type    gaussian 0.01
    mixer              pulay
      n_max_pulay        10
      charge_mix_param   0.1
    sc_accuracy_rho    5E-5
    sc_accuracy_eev    5E-3
    sc_accuracy_etot   5E-6
    sc_iter_limit      3000
  #
  #  Eigenvalue solver
  #
    KS_method          lapack
      empty_states       8
      basis_threshold    0.e-5
  #
  #  Efficiency
  #
  #   all previous settings are now default, except stratmann still
  #   undecided. Continue to handle stratmann with care, if at all.
  #
  #  partition_type stratmann
    partition_type rho_r2
  #  hartree_partition_type stratmann
  #
  #  Oprions for large clusters (100's of atoms: memory saving / better scaling)
  #
  # for periodic systems:
  #
    density_update_method orbital
    packed_matrix_format none
  #  k_grid 6 6 6
  #  output k_eigenvalue 1
  #  distributed_spline_storage .true.
  #
  #  Relaxation
  #
  #  relax_geometry   bfgs 5.e-3
    sc_accuracy_forces 5.E-4
    final_forces_cleaned .true.
  #
  #  Output options
  #
  #  output mulliken
    output Hirshfeld
  #  output dipole
  
  #harmonic_length_scale 0.001
  
  ################################################################################
  #
  #  FHI-aims code project
  #  VB, Fritz-Haber Institut, 2007
  #
  #  Suggested "safe" defaults for H atom (to be pasted into control.in file)
  #  Basis constructed for a non-relativistic H2 molecule using the
  #  PW-LDA functional.
  #
  ################################################################################
    species        H
  #     global species definitions
      nucleus             1
      cut_pot             4.0  2.0  1.0
      cut_free_atom       finite 8.0
      logarithmic         0.00010000 100.00  1.0123
      basis_dep_cutoff    1d-4  # 1d-4 is safe default - please check 5d-4 if you wish!
      radial_base         24 7.0
      radial_multiplier   2
      angular_grids       specified
        division   0.2783  110
        division   0.3822  194
        division   0.5626  302
  #      division   0.5922  434
  #      division   0.6227  590
  #      division   0.7206  770
        outer_grid  302
      l_hartree           4
  ################################################################################
  #
  #  Definition of "minimal" basis
  #
  ################################################################################
  #     valence basis states
      valence      1  s   1.
  #     ion occupancy
      ion_occ      1  s   0.5
  ################################################################################
  #
  #  Suggested additional basis functions. For production calculations,
  #  uncomment them one after another (the most important basis functions are
  #  listed first).
  #
  ################################################################################
  #  "First tier" - improvements: -1014.90 meV to -62.69 meV
       hydro 2 s 2.1
       hydro 2 p 3.5
  #  "Second tier" - improvements: -12.89 meV to -1.83 meV
       hydro 1 s 0.85
       hydro 2 p 3.7
       hydro 2 s 1.2
       hydro 3 d 7
  #  "Third tier" - improvements: -0.25 meV to -0.12 meV
  #     hydro 4 f 11.2
  #     hydro 3 p 4.8
  #     hydro 4 d 9
  #     hydro 3 s 3.2
  
  ################################################################################
  #
  #  FHI-aims code project
  #  VB, Fritz-Haber Institut, 2007
  #
  #  Suggested "safe" defaults for O atom (to be pasted into control.in file)
  #  All values have been tested for a non-relativistic, non-spinpolarized O2
  #  molecule using the PW-LDA functional. Validity for PBE is expected.
  #
  #  Constructed for dimers: 1.0 A, 1.208 A, 1.5 A, 2.0 A, 3.0 A
  #
  ################################################################################
    species        O
  #     global species definitions
      nucleus             8
      mass                15.9994
      l_hartree           4
      cut_pot             4.0  2.0  1.0
      cut_free_atom       finite 8.0
      basis_dep_cutoff    1d-4  # 1d-4 is safe default - please check 5d-4 if you wish!
      logarithmic         0.00010000 100.00  1.0123
      radial_base         36 7.0
      radial_multiplier   2
       angular_grids specified
        division   0.4087  110
        division   0.5181  194
        division   0.6184  302
  #      division   0.7315  434
  #      division   0.7934  590
  #      division   0.9656  770
  #      division   1.4041  974
  #      outer_grid 974
        outer_grid 302
  ################################################################################
  #
  #  Definition of "minimal" basis
  #
  ################################################################################
  #     valence basis states
      valence      2  s   2.
      valence      2  p   4.
  #     ion occupancy
      ion_occ      2  s   1.
      ion_occ      2  p   3.
  ################################################################################
  #
  #  Suggested additional basis functions. For production calculations,
  #  uncomment them one after another (the most important basis functions are
  #  listed first).
  #
  ################################################################################
  #  "First tier" - improvements: -699.05 meV to -159.38 meV
       hydro 2 p 1.8
       hydro 3 d 7.6
       hydro 3 s 6.4
  #  "Second tier" - improvements: -49.91 meV to -5.39 meV
       hydro 4 f 11.6
       hydro 3 p 6.2
       hydro 3 d 5.6
       hydro 5 g 17.6
       hydro 1 s 0.75
  #  "Third tier" - improvements: -2.83 meV to -0.50 meV
  #     ionic 2 p auto
  #     hydro 4 f 10.8
  #     hydro 4 d 4.7
  #     hydro 2 s 6.8
  #  "Fourth tier" - improvements: -0.40 meV to -0.12 meV
  #     hydro 3 p 5
  #     hydro 3 s 3.3
  #     hydro 5 g 15.6
  #     hydro 4 f 17.6
  #     hydro 4 d 14
  # Further basis functions - -0.08 meV and below
  #     hydro 3 s 2.1
  #     hydro 4 d 11.6
  #     hydro 3 p 16
  #     hydro 2 s 17.2
  
  
  -----------------------------------------------------------------------
  Completed first pass over input file control.in .
  -----------------------------------------------------------------------
  
  
  -----------------------------------------------------------------------
  Parsing geometry.in (first pass over file, find array dimensions only).
  The contents of geometry.in will be repeated verbatim below
  unless switched off by setting 'verbatim_writeout .false.' .
  in the first line of geometry.in .
  -----------------------------------------------------------------------
  
  atom      -4.053030000      0.065001000     -1.525160000  O
  atom      -4.566710000      0.974813000     -1.912820000  H
  atom      -3.067820000      0.330172000     -1.477310000  H
  atom      -4.370360000     -0.049164000     -0.572274000  H
  atom      -4.581760000     -0.256435000      0.939478000  O
  atom      -4.349860000      0.471090000      1.504340000  H
  atom      -5.393870000     -0.726611000      1.228070000  H
  atom      -5.293160000      2.192130000     -2.328800000  O
  atom      -4.829300000      2.988660000     -1.973850000  H
  atom      -5.428570000      2.328640000     -3.235170000  H
  atom      -3.818880000      2.024990000      2.187990000  O
  atom      -3.690880000      1.961360000      3.202150000  H
  atom      -4.546490000      2.751300000      2.045370000  H
  atom      -1.975360000      2.858040000      0.453140000  O
  atom      -1.223550000      3.375850000      0.786238000  H
  atom      -2.537520000      2.567960000      1.156120000  H
  atom      -4.066610000      4.258280000     -0.900064000  O
  atom      -3.224110000      3.876870000     -0.569443000  H
  atom      -3.737450000      5.116530000     -1.322720000  H
  atom      -5.628340000      3.730740000      1.385610000  O
  atom      -6.090650000      4.418470000      1.860350000  H
  atom      -5.158540000      4.200260000      0.615875000  H
  
  -----------------------------------------------------------------------
  Completed first pass over input file geometry.in .
  -----------------------------------------------------------------------
  
 
  Basic array size parameters: 
  | Number of species                 :        2
  | Number of atoms                   :       22
  | Max. basis fn. angular momentum   :        4
  | Max. atomic/ionic basis occupied n:        2
  | Max. number of basis fn. types    :        2
  | Max. radial fns per species/type  :        8
  | Max. logarithmic grid size        :     1301
  | Max. radial integration grid size :       73
  | Max. angular integration grid size:      302
  | Max. angular grid division number :        8
  | Radial grid for Hartree potential :     1301
  | Number of spin channels           :        1

------------------------------------------------------------
          Reading file control.in.
------------------------------------------------------------
  XC: Using RPBE gradient-corrected functionals.
  Spin treatment: No spin polarisation.
  Scalar relativistic treatment of kinetic energy: on-site free-atom approximation to ZORA.
  Charge =   0.000000E+00: Neutral system requested explicitly.
  Using non-empirical van der Waals correction (Hirshfeld partitioning):
  Occupation type: Gaussian broadening, width =   0.100000E-01 eV.
  Using pulay charge density mixing.
  Pulay mixing - number of memorized iterations:   10
  Charge density mixing - mixing parameter:     0.1000
  Convergence accuracy of self-consistent charge density: 0.5000E-04
  Convergence accuracy of sum of eigenvalues: 0.5000E-02
  Convergence accuracy of total energy: 0.5000E-05
  Maximum number of s.-c. iterations  :  3000
  Kohn-Sham eigenvalues and eigenfunctions calculated by lapack diagonalisation (D&C).
  Number of empty states per atom:        8
  Threshold for basis singularities: 0.0000E+00
  Partition function in integrals calculations: rho / r^2
 Using packed matrix format           0
  Convergence accuracy of forces: 0.5000E-03
  Cleaning forces before final output.
  Hirshfeld charge analysis will be performed.
 
  Reading configuration options for species H                   .
  | Found nuclear charge :   1.0000
  | Found cutoff potl. onset [A], width [A], scale factor :    4.00000    2.00000    1.00000
  | Found cutoff specification for free atom: Cutoff potential begins at    8.00000 A.
  | Found logarithmic grid data [bohr] : 0.1000E-03 0.1000E+03 0.1012E+01
  | Threshold for basis-dependent cutoff potential is   0.100000E-03
  | Found data for basic radial integration grid :    24 points, outermost radius =    7.000 A
  | Found multiplier for basic radial grid :   2
  | Found angular grid specification: user-specified.
  | Specified grid contains     4 separate shells.
  | Check grid settings after all constraints further below.
  | Found l_max for Hartree potential  :   4
  | Found free-atom valence shell :  1 s   1.000
  | No ionic wave fns used. Skipping ion_occ.
  | Found hydrogenic basis function :  2 s   2.100
  | Found hydrogenic basis function :  2 p   3.500
  | Found hydrogenic basis function :  1 s   0.850
  | Found hydrogenic basis function :  2 p   3.700
  | Found hydrogenic basis function :  2 s   1.200
  | Found hydrogenic basis function :  3 d   7.000
  Species H                   : Missing cutoff potential type.
  Defaulting to exp(1/x)/(1-x)^2 type cutoff potential.
  Species H : On-site basis accuracy parameter (for Gram-Schmidt orthonormalisation) not specified.
  Using default value basis_acc =  0.1000000E-03.
  Species H                   : Using default innermost maximum threshold i_radial=  2 for radial functions.
  Species H                   : Basic radial grid will be enhanced according to radial_multiplier =   2, to contain    49 grid points.
 
  Reading configuration options for species O                   .
  | Found nuclear charge :   8.0000
  | Found atomic mass :    15.9994000000000      amu
  | Found l_max for Hartree potential  :   4
  | Found cutoff potl. onset [A], width [A], scale factor :    4.00000    2.00000    1.00000
  | Found cutoff specification for free atom: Cutoff potential begins at    8.00000 A.
  | Threshold for basis-dependent cutoff potential is   0.100000E-03
  | Found logarithmic grid data [bohr] : 0.1000E-03 0.1000E+03 0.1012E+01
  | Found data for basic radial integration grid :    36 points, outermost radius =    7.000 A
  | Found multiplier for basic radial grid :   2
  | Found angular grid specification: user-specified.
  | Specified grid contains     4 separate shells.
  | Check grid settings after all constraints further below.
  | Found free-atom valence shell :  2 s   2.000
  | Found free-atom valence shell :  2 p   4.000
  | No ionic wave fns used. Skipping ion_occ.
  | No ionic wave fns used. Skipping ion_occ.
  | Found hydrogenic basis function :  2 p   1.800
  | Found hydrogenic basis function :  3 d   7.600
  | Found hydrogenic basis function :  3 s   6.400
  | Found hydrogenic basis function :  4 f  11.600
  | Found hydrogenic basis function :  3 p   6.200
  | Found hydrogenic basis function :  3 d   5.600
  | Found hydrogenic basis function :  5 g  17.600
  | Found hydrogenic basis function :  1 s   0.750
  Species O                   : Missing cutoff potential type.
  Defaulting to exp(1/x)/(1-x)^2 type cutoff potential.
  Species O : On-site basis accuracy parameter (for Gram-Schmidt orthonormalisation) not specified.
  Using default value basis_acc =  0.1000000E-03.
  Species O                   : Using default innermost maximum threshold i_radial=  2 for radial functions.
  Species O                   : Basic radial grid will be enhanced according to radial_multiplier =   2, to contain    73 grid points.
 
  Finished reading input file 'control.in'. Consistency checks are next.
 
  Target number of points in a grid batch is not set. Defaulting to  100
  Method for grid partitioning is not set. Defaulting to parallel hash+maxmin partitioning.
  Batch size limit is not set. Defaulting to    200
  By default, will store active basis functions for each batch.
  If in need of memory, prune_basis_once .false. can be used to disable this option.
  communication_type for Hartree potential was not specified.
  Defaulting to calc_hartree .
  Pulay mixer: Number of initial linear mixing iterations not set.
  Defaulting to    0 iterations.
  Work space size for distributed Hartree potential not set.
  Defaulting to   0.200000E+03 MB.
  Algorithm-dependent basis array size parameters:
  | n_max_pulay                         :       10
  Geometry relaxation not requested: no relaxation will be performed.
  Handling of forces: Unphysical translation and rotation will be removed from forces.
  No accuracy limit for integral partition fn. given. Defaulting to 0.1000E-14.
  No threshold value for u(r) in integrations given. Defaulting to 0.1000E-05.
  No accuracy for occupation numbers given. Defaulting to 0.1000E-07.
  No threshold value for occupation numbers given. Defaulting to 0.0000E+00.
  No accuracy for fermi level given. Defaulting to 0.1000E-19.
  Maximum # of iterations to find E_F not set. Defaulting to  200.
  Will not use alltoall communication since running on < 1024 CPUs.
  Partitioning for Hartree potential was not defined. Using partition_type for integrals.
  | Reporting present value of keyword multip_moments_threshold  :       0.10000000E-09
  | This value may affect high angular momentum components of the Hartree potential in periodic systems.
  No q(lm)/r^(l+1) cutoff set for long-range Hartree potential.
  | Using default value of  0.100000E-09 .
  | Verify using the multipole_threshold keyword.
  Defaulting to new monopole extrapolation.
  Density update method: Loop over occupied states selected for charge density update.
------------------------------------------------------------


------------------------------------------------------------
          Reading geometry description geometry.in.
------------------------------------------------------------
  Input structure read successfully.
  The structure contains       22 atoms,  and a total of         71.000 electrons.

  Input geometry:
  | No unit cell requested.
  | Atomic structure:
  |       Atom                x [A]            y [A]            z [A]
  |    1: Species O             -4.053030         0.065001        -1.525160
  |    2: Species H             -4.566710         0.974813        -1.912820
  |    3: Species H             -3.067820         0.330172        -1.477310
  |    4: Species H             -4.370360        -0.049164        -0.572274
  |    5: Species O             -4.581760        -0.256435         0.939478
  |    6: Species H             -4.349860         0.471090         1.504340
  |    7: Species H             -5.393870        -0.726611         1.228070
  |    8: Species O             -5.293160         2.192130        -2.328800
  |    9: Species H             -4.829300         2.988660        -1.973850
  |   10: Species H             -5.428570         2.328640        -3.235170
  |   11: Species O             -3.818880         2.024990         2.187990
  |   12: Species H             -3.690880         1.961360         3.202150
  |   13: Species H             -4.546490         2.751300         2.045370
  |   14: Species O             -1.975360         2.858040         0.453140
  |   15: Species H             -1.223550         3.375850         0.786238
  |   16: Species H             -2.537520         2.567960         1.156120
  |   17: Species O             -4.066610         4.258280        -0.900064
  |   18: Species H             -3.224110         3.876870        -0.569443
  |   19: Species H             -3.737450         5.116530        -1.322720
  |   20: Species O             -5.628340         3.730740         1.385610
  |   21: Species H             -6.090650         4.418470         1.860350
  |   22: Species H             -5.158540         4.200260         0.615875
  |

  | The smallest distance between any two atoms is         0.92654057 AA.
  |
  | The first atom of this pair is atom number                      8 .
  | The second atom of this pair is atom number                    10 .

  Structure-dependent array size parameters: 
  | Maximum number of distinct radial functions  :       18
  | Maximum number of basis functions            :      498
  | Number of Kohn-Sham states (occupied + empty):      124
------------------------------------------------------------

------------------------------------------------------------
          Preparing all fixed parts of the calculation.
------------------------------------------------------------
  Determining machine precision:
    2.225073858507201E-308
  Setting up grids for atomic and cluster calculations.

  Creating wave function, potential, and density for free atoms.

  Species: H

  List of occupied orbitals and eigenvalues:
    n    l              occ      energy [Ha]    energy [eV]
    1    0           1.0000        -0.241408        -6.5691


  Species: O

  List of occupied orbitals and eigenvalues:
    n    l              occ      energy [Ha]    energy [eV]
    1    0           2.0000       -18.944147      -515.4965
    2    0           2.0000        -0.883529       -24.0421
    2    1           4.0000        -0.330176        -8.9845

  Creating fixed part of basis set: Ionic, confined, hydrogenic.
 
  H                    hydrogenic:
 
  List of hydrogenic basis orbitals: 
    n    l      effective z      eigenvalue [eV]  inner max. [A]     outer max. [A]     outer radius [A]   
    2    0         2.100000       -14.9965           0.193241           1.317192           5.372934
    2    1         3.500000       -41.6672           0.602363           0.602363           4.056010
    1    0         0.850000        -9.8292           0.624864           0.624864           5.372934
    2    1         3.700000       -46.5653           0.573616           0.573616           3.909951
    2    0         1.200000        -4.5995           0.334977           2.228160           5.505921
    3    2         7.000000       -74.0753           0.680692           0.680692           3.769152
 
 
  O                    hydrogenic:
 
  List of hydrogenic basis orbitals: 
    n    l      effective z      eigenvalue [eV]  inner max. [A]     outer max. [A]     outer radius [A]   
    2    1         1.800000       -11.0118           1.178546           1.178546           5.432516
    3    2         7.600000       -87.3182           0.624117           0.624117           3.541422
    3    0         6.400000       -61.9209           0.061166           1.081887           4.306510
    4    3        11.600000      -114.4238           0.731621           0.731621           3.584982
    3    1         6.200000       -58.1113           0.255677           1.030255           4.306510
    3    2         5.600000       -47.4081           0.847222           0.847222           4.413102
    5    4        17.600000      -168.5799           0.749730           0.749730           3.372413
    1    0         0.750000        -7.6499           0.705275           0.705275           5.366508
 

  Adding cutoff potential to free-atom effective potential.
  Creating atomic-like basis functions for current effective potential.

  Species H                   :

  List of atomic basis orbitals and eigenvalues:
    n    l      energy [Ha]    energy [eV]    outer radius [A]
    1    0        -0.241374        -6.5681       5.372934


  Species O                   :

  List of atomic basis orbitals and eigenvalues:
    n    l      energy [Ha]    energy [eV]    outer radius [A]
    1    0       -18.944147      -515.4965       1.415745
    2    0        -0.883529       -24.0421       5.048305
    2    1        -0.330173        -8.9845       5.301302

  Assembling full basis from fixed parts.
  | Species H :   atomic orbital   1 s accepted.
  | Species H :    hydro orbital   2 s accepted.
  | Species H :    hydro orbital   1 s accepted.
  | Species H :    hydro orbital   2 s accepted.
  | Species H :    hydro orbital   2 p accepted.
  | Species H :    hydro orbital   2 p accepted.
  | Species H :    hydro orbital   3 d accepted.
  | Species O :   atomic orbital   1 s accepted.
  | Species O :    hydro orbital   3 s accepted.
  | Species O :   atomic orbital   2 s accepted.
  | Species O :    hydro orbital   1 s accepted.
  | Species O :    hydro orbital   3 p accepted.
  | Species O :   atomic orbital   2 p accepted.
  | Species O :    hydro orbital   2 p accepted.
  | Species O :    hydro orbital   3 d accepted.
  | Species O :    hydro orbital   3 d accepted.
  | Species O :    hydro orbital   4 f accepted.
  | Species O :    hydro orbital   5 g accepted.
 
  Basis size parameters after reduction:
  | Total number of radial functions:       18
  | Total number of basis functions :      498
 
  Testing on-site integration grid accuracy.
  |  Species  Function  <phi|h_atom|phi> (log., in eV)  <phi|h_atom|phi> (rad., in eV)
           1        1                 -6.5683835025                 -6.5684759159
           1        2                 13.3711789951                 13.3708738703
           1        3                 23.6590910787                 23.6532055418
           1        4                 16.2963827186                 16.1870710655 ***
           1        5                 28.7627214838                 28.7627215090
           1        6                 59.5965249172                 59.5965950857
           1        7                 60.2220506392                 60.2220503827
           2        8               -515.4964576505               -515.4964530710
           2        9                 15.3030791347                 15.3030722972
           2       10                -21.7296094581                -21.7296135470
           2       11                 14.2969371730                 14.2969701621
           2       12                 21.0679693190                 21.0679697493
           2       13                 -2.3833606469                 -2.3833613176
           2       14                 13.7067136422                 13.7066766629
           2       15                 45.8013116808                 45.8013116965
           2       16                 52.2309815402                 52.2309831494
           2       17                 85.4120732416                 85.4120732763
           2       18                142.1019167745                142.1019167817
 * Note: Onsite integrals marked "***" above are less accurate than
 * onsite_accuracy_threshold =    0.03000 eV. Usually, this is harmless.
 * When in doubt, tighten the "radial" and/or "radial_multiplier" flags to check.

  Preparing densities etc. for the partition functions (integrals / Hartree potential).

  Preparations completed.
  max(cpu_time)          :      0.172 s.
  Wall clock time (cpu1) :      0.581 s.
------------------------------------------------------------

------------------------------------------------------------
          Begin self-consistency loop: Initialization.

          Date     :  20150727, Time     :  115832.883
------------------------------------------------------------

  Initializing index lists of integration centers etc. from given atomic structure:
  | Number of centers in hartree potential         :        22
  | Number of centers in hartree multipole         :        22
  | Number of centers in electron density summation:        22
  | Number of centers in basis integrals           :        22
  | Number of centers in integrals                 :        22
  Partitioning the integration grid into batches with parallel hashing+maxmin method.
  | Number of batches:     2797
  | Maximal batch size:     196
  | Minimal batch size:      66
  | Average batch size:     102.606
  | Standard deviation of batch sizes:      32.001

  Integration load balanced across     8 MPI tasks.
  Work distribution over tasks is as follows:
  Task     0 has      35890 integration points.
  Task     1 has      35973 integration points.
  Task     2 has      35833 integration points.
  Task     3 has      35871 integration points.
  Task     4 has      35865 integration points.
  Task     5 has      35864 integration points.
  Task     6 has      35848 integration points.
  Task     7 has      35844 integration points.
  Initializing partition tables, free-atom densities, potentials, etc. across the integration grid (initialize_grid_storage).
  | Net number of integration points:   286988
  | of which are non-zero points    :   286422
  Obtaining max. number of non-zero basis functions in each batch (get_n_compute_maxes).
  | Maximal number of non-zero basis functions:      493 in task     0
  | Maximal number of non-zero basis functions:      493 in task     1
  | Maximal number of non-zero basis functions:      492 in task     2
  | Maximal number of non-zero basis functions:      493 in task     3
  | Maximal number of non-zero basis functions:      493 in task     4
  | Maximal number of non-zero basis functions:      494 in task     5
  | Maximal number of non-zero basis functions:      493 in task     6
  | Maximal number of non-zero basis functions:      493 in task     7
  Integrating Hamiltonian matrix: batch-based integration.
  Time summed over all CPUs for integration: real work       17.712 s, elapsed       17.994 s
  Integrating overlap matrix.
  Time summed over all CPUs for integration: real work        9.793 s, elapsed        9.919 s

  Updating Kohn-Sham eigenvalues, eigenvectors, occupation numbers, and Fermi level.
  Solving generalized eigenproblem
  Updating Kohn-Sham eigenvalues and eigenfunctions.
  Transforming overlap matrix and checking for singularities.
  Overlap matrix is nonsingular:
  | Lowest eigenvalue:  0.175371E-03
  Solving real generalised eigenvalue problem by standard LAPACK (fast)
  Determining occupation numbers for Kohn-Sham eigenstates.
  | Chemical potential (Fermi level) in eV                 : -.27470222E+01
  | Error in electron count due to remaining E_F inaccuracy: -.14921397E-11
  | Maximum occupation number of highest empty state:  0.00E+00

  Writing Kohn-Sham eigenvalues.

  State    Occupation    Eigenvalue [Ha]    Eigenvalue [eV]
      1       2.00000         -19.065141         -518.78889
      2       2.00000         -19.064975         -518.78435
      3       2.00000         -19.059289         -518.62964
      4       2.00000         -19.056855         -518.56342
      5       2.00000         -19.050670         -518.39512
      6       2.00000         -19.045476         -518.25377
      7       2.00000         -19.036195         -518.00123
      8       2.00000          -1.130486          -30.76209
      9       2.00000          -1.117444          -30.40719
     10       2.00000          -1.110263          -30.21180
     11       2.00000          -1.104080          -30.04354
     12       2.00000          -1.100108          -29.93547
     13       2.00000          -1.089102          -29.63598
     14       2.00000          -1.068280          -29.06936
     15       2.00000          -0.655820          -17.84577
     16       2.00000          -0.654088          -17.79864
     17       2.00000          -0.653804          -17.79090
     18       2.00000          -0.641165          -17.44698
     19       2.00000          -0.632506          -17.21137
     20       2.00000          -0.621166          -16.90278
     21       2.00000          -0.611100          -16.62888
     22       2.00000          -0.606362          -16.49996
     23       2.00000          -0.538011          -14.64003
     24       2.00000          -0.528358          -14.37735
     25       2.00000          -0.517726          -14.08805
     26       2.00000          -0.507790          -13.81768
     27       2.00000          -0.504857          -13.73787
     28       2.00000          -0.491451          -13.37307
     29       2.00000          -0.482981          -13.14257
     30       2.00000          -0.453078          -12.32888
     31       2.00000          -0.446843          -12.15922
     32       2.00000          -0.444737          -12.10190
     33       2.00000          -0.440616          -11.98977
     34       2.00000          -0.438125          -11.92199
     35       2.00000          -0.431242          -11.73469
     36       1.00000          -0.100951           -2.74702
     37       0.00000          -0.068978           -1.87698
     38       0.00000          -0.068909           -1.87511
     39       0.00000          -0.051946           -1.41353
     40       0.00000          -0.039674           -1.07959
     41       0.00000          -0.037099           -1.00951
     42       0.00000          -0.024753           -0.67356
     43       0.00000           0.018974            0.51630
     44       0.00000           0.028783            0.78323
     45       0.00000           0.031331            0.85257
     46       0.00000           0.037901            1.03134
     47       0.00000           0.044487            1.21054
     48       0.00000           0.052727            1.43477
     49       0.00000           0.057341            1.56032
     50       0.00000           0.063628            1.73141
     51       0.00000           0.072111            1.96224
     52       0.00000           0.078680            2.14100
     53       0.00000           0.084969            2.31211
     54       0.00000           0.088193            2.39985
     55       0.00000           0.098213            2.67251
     56       0.00000           0.103031            2.80362
     57       0.00000           0.105596            2.87340
     58       0.00000           0.107770            2.93257
     59       0.00000           0.114379            3.11241
     60       0.00000           0.119432            3.24992
     61       0.00000           0.131621            3.58160
     62       0.00000           0.132794            3.61350
     63       0.00000           0.136043            3.70191
     64       0.00000           0.143646            3.90881
     65       0.00000           0.149988            4.08139
     66       0.00000           0.150439            4.09366
     67       0.00000           0.162563            4.42357
     68       0.00000           0.171476            4.66610
     69       0.00000           0.177988            4.84331
     70       0.00000           0.184690            5.02566
     71       0.00000           0.206242            5.61212
     72       0.00000           0.227309            6.18539
     73       0.00000           0.231061            6.28749
     74       0.00000           0.233196            6.34557
     75       0.00000           0.240074            6.53273
     76       0.00000           0.252208            6.86293
     77       0.00000           0.276495            7.52381
     78       0.00000           0.280538            7.63383
     79       0.00000           0.285336            7.76439
     80       0.00000           0.299382            8.14661
     81       0.00000           0.301764            8.21142
     82       0.00000           0.309554            8.42340
     83       0.00000           0.318209            8.65892
     84       0.00000           0.332619            9.05101
     85       0.00000           0.345562            9.40321
     86       0.00000           0.347020            9.44289
     87       0.00000           0.359497            9.78240
     88       0.00000           0.371607           10.11193
     89       0.00000           0.378758           10.30653
     90       0.00000           0.387015           10.53123
     91       0.00000           0.396291           10.78362
     92       0.00000           0.401665           10.92986
     93       0.00000           0.405173           11.02530
     94       0.00000           0.419121           11.40487
     95       0.00000           0.434656           11.82760
     96       0.00000           0.442445           12.03955
     97       0.00000           0.446129           12.13979
     98       0.00000           0.458475           12.47575
     99       0.00000           0.468674           12.75328
    100       0.00000           0.479369           13.04429
    101       0.00000           0.500089           13.60812
    102       0.00000           0.507532           13.81064
    103       0.00000           0.518417           14.10685
    104       0.00000           0.526419           14.32460
    105       0.00000           0.535546           14.57294
    106       0.00000           0.557207           15.16236
    107       0.00000           0.562026           15.29351
    108       0.00000           0.577425           15.71253
    109       0.00000           0.582500           15.85063
    110       0.00000           0.608699           16.56355
    111       0.00000           0.646062           17.58025
    112       0.00000           0.653729           17.78888
    113       0.00000           0.680702           18.52285
    114       0.00000           0.689982           18.77537
    115       0.00000           0.710915           19.34499
    116       0.00000           0.725464           19.74089
    117       0.00000           0.736198           20.03296
    118       0.00000           0.757965           20.62529
    119       0.00000           0.772099           21.00989
    120       0.00000           0.778270           21.17781
    121       0.00000           0.792436           21.56327
    122       0.00000           0.797754           21.70799
    123       0.00000           0.803655           21.86857
    124       0.00000           0.819236           22.29256

  Highest occupied state (VBM) at    -11.73469021 eV
  | Occupation number:      2.00000000

  Lowest unoccupied state (CBM) at    -2.74702217 eV
  | Occupation number:      1.00000000

  Overall HOMO-LUMO gap:      8.98766804 eV.
  Calculating total energy contributions from superposition of free atom densities.

  Total energy components:
  | Sum of eigenvalues            :        -304.90133307 Ha       -8296.78740871 eV
  | XC energy correction          :         -64.26317173 Ha       -1748.68987506 eV
  | XC potential correction       :          82.14698096 Ha        2235.33308429 eV
  | Free-atom electrostatic energy:        -249.75960355 Ha       -6796.30460483 eV
  | Hartree energy correction     :           0.00000000 Ha           0.00000000 eV
  | van der Waals energy corr.    :           0.00000000 Ha           0.00000000 eV
  | Entropy correction            :          -0.00010367 Ha          -0.00282095 eV
  | ---------------------------
  | Total energy                  :        -536.77712739 Ha      -14606.44880431 eV
  | Total energy, T -> 0          :        -536.77723106 Ha      -14606.45162526 eV  <-- do not rely on this value for anything but (periodic) metals
  | Electronic free energy        :        -536.77733473 Ha      -14606.45444621 eV

  Derived energy quantities:
  | Kinetic energy                :         531.70660559 Ha       14468.47288580 eV
  | Electrostatic energy          :       -1004.22056125 Ha      -27326.23181506 eV
  | Energy correction for multipole
  | error in Hartree potential    :           0.00000000 Ha           0.00000000 eV
  | Sum of eigenvalues per atom                           :        -377.12670040 eV
  | Total energy (T->0) per atom                          :        -663.92961933 eV  <-- do not rely on this value for anything but (periodic) metals
  | Electronic free energy per atom                       :        -663.92974755 eV
  Initialize hartree_potential_storage
  Max. number of atoms included in rho_multipole:           22

  End scf initialization - timings             :  max(cpu_time)    wall_clock(cpu1)
  | Time for scf. initialization               :        4.604 s           4.604 s
  | Boundary condition initialization          :        0.000 s           0.000 s
  | Integration                                :        3.496 s           3.496 s
  | Solution of K.-S. eqns.                    :        0.467 s           0.467 s
  | Grid partitioning                          :        0.215 s           0.215 s
  | Preloading free-atom quantities on grid    :        0.013 s           0.013 s
  | Free-atom superposition energy             :        0.127 s           0.127 s
  | Total energy evaluation                    :        0.000 s           0.001 s
------------------------------------------------------------

------------------------------------------------------------
          Begin self-consistency iteration #    1

  Date     :  20150727, Time     :  115837.487
------------------------------------------------------------
  Evaluating new KS density.
  Integration grid: deviation in total charge (<rho> - N_e) =  -1.477929E-12
  Pulay mixing of updated and previous charge densities.

  Evaluating partitioned Hartree potential by multipole expansion.
  | Analytical far-field extrapolation by fixed multipoles:
  | Hartree multipole sum: apparent total charge =  -0.150634E-05
  Summing up the Hartree potential.
  Time summed over all CPUs for potential: real work        5.435 s, elapsed        5.465 s
  | RMS charge density error from multipole expansion :   0.200474E-02

  Integrating Hamiltonian matrix: batch-based integration.
  Time summed over all CPUs for integration: real work       17.694 s, elapsed       17.983 s

  Updating Kohn-Sham eigenvalues, eigenvectors, occupation numbers, and Fermi level.
  Solving generalized eigenproblem
  Updating Kohn-Sham eigenvalues and eigenfunctions.
  Solving real generalised eigenvalue problem by standard LAPACK (fast)
  Determining occupation numbers for Kohn-Sham eigenstates.
  | Chemical potential (Fermi level) in eV                 : -.24612799E+01
  | Error in electron count due to remaining E_F inaccuracy: -.83304030E-10
  | Maximum occupation number of highest empty state:  0.00E+00

  Writing Kohn-Sham eigenvalues.

  State    Occupation    Eigenvalue [Ha]    Eigenvalue [eV]
      1       2.00000         -19.011501         -517.32927
      2       2.00000         -18.993733         -516.84576
      3       2.00000         -18.983310         -516.56214
      4       2.00000         -18.974405         -516.31984
      5       2.00000         -18.973578         -516.29734
      6       2.00000         -18.972631         -516.27157
      7       2.00000         -18.963267         -516.01676
      8       2.00000          -1.101830          -29.98232
      9       2.00000          -1.083603          -29.48635
     10       2.00000          -1.069447          -29.10114
     11       2.00000          -1.066171          -29.01198
     12       2.00000          -1.060636          -28.86137
     13       2.00000          -1.051946          -28.62492
     14       2.00000          -1.029617          -28.01730
     15       2.00000          -0.624076          -16.98196
     16       2.00000          -0.622103          -16.92827
     17       2.00000          -0.617186          -16.79447
     18       2.00000          -0.615815          -16.75719
     19       2.00000          -0.598826          -16.29487
     20       2.00000          -0.597971          -16.27163
     21       2.00000          -0.578915          -15.75309
     22       2.00000          -0.572997          -15.59205
     23       2.00000          -0.505661          -13.75974
     24       2.00000          -0.491927          -13.38601
     25       2.00000          -0.482116          -13.11905
     26       2.00000          -0.469677          -12.78056
     27       2.00000          -0.465505          -12.66703
     28       2.00000          -0.456970          -12.43478
     29       2.00000          -0.447813          -12.18560
     30       2.00000          -0.417945          -11.37286
     31       2.00000          -0.408013          -11.10259
     32       2.00000          -0.403571          -10.98173
     33       2.00000          -0.399149          -10.86141
     34       2.00000          -0.398354          -10.83978
     35       2.00000          -0.390686          -10.63110
     36       1.00000          -0.090450           -2.46128
     37       0.00000          -0.060188           -1.63781
     38       0.00000          -0.059675           -1.62384
     39       0.00000          -0.042974           -1.16940
     40       0.00000          -0.031791           -0.86507
     41       0.00000          -0.029491           -0.80250
     42       0.00000          -0.016620           -0.45226
     43       0.00000           0.030647            0.83395
     44       0.00000           0.036211            0.98536
     45       0.00000           0.038780            1.05527
     46       0.00000           0.049340            1.34260
     47       0.00000           0.055536            1.51121
     48       0.00000           0.063360            1.72410
     49       0.00000           0.064385            1.75202
     50       0.00000           0.071987            1.95888
     51       0.00000           0.081177            2.20893
     52       0.00000           0.088298            2.40272
     53       0.00000           0.092242            2.51003
     54       0.00000           0.097211            2.64524
     55       0.00000           0.110475            3.00617
     56       0.00000           0.112840            3.07053
     57       0.00000           0.119543            3.25292
     58       0.00000           0.120597            3.28161
     59       0.00000           0.124147            3.37821
     60       0.00000           0.131858            3.58803
     61       0.00000           0.140792            3.83116
     62       0.00000           0.143146            3.89519
     63       0.00000           0.150212            4.08748
     64       0.00000           0.153496            4.17683
     65       0.00000           0.163363            4.44535
     66       0.00000           0.171971            4.67957
     67       0.00000           0.175238            4.76846
     68       0.00000           0.182001            4.95251
     69       0.00000           0.189011            5.14324
     70       0.00000           0.194475            5.29194
     71       0.00000           0.216317            5.88628
     72       0.00000           0.235903            6.41924
     73       0.00000           0.239459            6.51601
     74       0.00000           0.244934            6.66499
     75       0.00000           0.249394            6.78636
     76       0.00000           0.260433            7.08674
     77       0.00000           0.285726            7.77500
     78       0.00000           0.290634            7.90854
     79       0.00000           0.293710            7.99225
     80       0.00000           0.305762            8.32021
     81       0.00000           0.311060            8.46437
     82       0.00000           0.318271            8.66059
     83       0.00000           0.326400            8.88181
     84       0.00000           0.341377            9.28935
     85       0.00000           0.353877            9.62949
     86       0.00000           0.355989            9.68694
     87       0.00000           0.369185           10.04602
     88       0.00000           0.381408           10.37864
     89       0.00000           0.387526           10.54512
     90       0.00000           0.396851           10.79888
     91       0.00000           0.405221           11.02661
     92       0.00000           0.410991           11.18363
     93       0.00000           0.413283           11.24599
     94       0.00000           0.430775           11.72197
     95       0.00000           0.444057           12.08341
     96       0.00000           0.451034           12.27325
     97       0.00000           0.456087           12.41076
     98       0.00000           0.466806           12.70245
     99       0.00000           0.478799           13.02877
    100       0.00000           0.489988           13.33325
    101       0.00000           0.512280           13.93984
    102       0.00000           0.522498           14.21789
    103       0.00000           0.529797           14.41651
    104       0.00000           0.536890           14.60952
    105       0.00000           0.547345           14.89402
    106       0.00000           0.567621           15.44575
    107       0.00000           0.575343           15.65587
    108       0.00000           0.589982           16.05422
    109       0.00000           0.595940           16.21635
    110       0.00000           0.618619           16.83347
    111       0.00000           0.658070           17.90698
    112       0.00000           0.665691           18.11437
    113       0.00000           0.692836           18.85303
    114       0.00000           0.702707           19.12164
    115       0.00000           0.724660           19.71900
    116       0.00000           0.739311           20.11767
    117       0.00000           0.749183           20.38630
    118       0.00000           0.770268           20.96006
    119       0.00000           0.785031           21.36178
    120       0.00000           0.792468           21.56415
    121       0.00000           0.805170           21.90980
    122       0.00000           0.809829           22.03657
    123       0.00000           0.816102           22.20726
    124       0.00000           0.832189           22.64502

  Highest occupied state (VBM) at    -10.63109960 eV
  | Occupation number:      2.00000000

  Lowest unoccupied state (CBM) at    -2.46127991 eV
  | Occupation number:      1.00000000

  Overall HOMO-LUMO gap:      8.16981968 eV.

  Total energy components:
  | Sum of eigenvalues            :        -301.89235308 Ha       -8214.90889722 eV
  | XC energy correction          :         -64.57502866 Ha       -1757.17593386 eV
  | XC potential correction       :          82.55357745 Ha        2246.39713797 eV
  | Free-atom electrostatic energy:        -249.75960355 Ha       -6796.30460483 eV
  | Hartree energy correction     :          -2.93717337 Ha         -79.92455388 eV
  | van der Waals energy corr.    :           0.00000000 Ha           0.00000000 eV
  | Entropy correction            :          -0.00010367 Ha          -0.00282095 eV
  | ---------------------------
  | Total energy                  :        -536.61058120 Ha      -14601.91685182 eV
  | Total energy, T -> 0          :        -536.61068487 Ha      -14601.91967276 eV  <-- do not rely on this value for anything but (periodic) metals
  | Electronic free energy        :        -536.61078854 Ha      -14601.92249371 eV

  Derived energy quantities:
  | Kinetic energy                :         533.60369763 Ha       14520.09538685 eV
  | Electrostatic energy          :       -1005.63925017 Ha      -27364.83630480 eV
  | Energy correction for multipole
  | error in Hartree potential    :           0.00055140 Ha           0.01500447 eV
  | Sum of eigenvalues per atom                           :        -373.40494987 eV
  | Total energy (T->0) per atom                          :        -663.72362149 eV  <-- do not rely on this value for anything but (periodic) metals
  | Electronic free energy per atom                       :        -663.72374971 eV

  Self-consistency convergence accuracy:
  | Change of charge density      : 0.7536E+00
  | Change of sum of eigenvalues  : 0.8188E+02 eV
  | Change of total energy        : 0.4532E+01 eV

  End self-consistency iteration #     1       :  max(cpu_time)    wall_clock(cpu1)
  | Time for this iteration                    :        4.502 s           4.503 s
  | Charge density update                      :        1.425 s           1.425 s
  | Density mixing                             :        0.005 s           0.005 s
  | Hartree multipole update                   :        0.007 s           0.007 s
  | Hartree multipole summation                :        0.685 s           0.685 s
  | Integration                                :        2.251 s           2.251 s
  | Solution of K.-S. eqns.                    :        0.129 s           0.128 s
  | Total energy evaluation                    :        0.001 s           0.000 s
------------------------------------------------------------

------------------------------------------------------------
          Begin self-consistency iteration #    2

  Date     :  20150727, Time     :  115841.990
------------------------------------------------------------
  Evaluating new KS density.
  Integration grid: deviation in total charge (<rho> - N_e) =  -8.326140E-11
  Pulay mixing of updated and previous charge densities.

  Evaluating partitioned Hartree potential by multipole expansion.
  | Analytical far-field extrapolation by fixed multipoles:
  | Hartree multipole sum: apparent total charge =  -0.468355E-05
  Summing up the Hartree potential.
  Time summed over all CPUs for potential: real work        5.434 s, elapsed        5.456 s
  | RMS charge density error from multipole expansion :   0.826827E-02

  Integrating Hamiltonian matrix: batch-based integration.
  Time summed over all CPUs for integration: real work       17.684 s, elapsed       17.952 s

  Updating Kohn-Sham eigenvalues, eigenvectors, occupation numbers, and Fermi level.
  Solving generalized eigenproblem
  Updating Kohn-Sham eigenvalues and eigenfunctions.
  Solving real generalised eigenvalue problem by standard LAPACK (fast)
  Determining occupation numbers for Kohn-Sham eigenstates.
  | Chemical potential (Fermi level) in eV                 : -.18147041E+01
  | Error in electron count due to remaining E_F inaccuracy: -.53717031E-11
  | Maximum occupation number of highest empty state:  0.00E+00

  Highest occupied state (VBM) at     -7.77866927 eV
  | Occupation number:      2.00000000

  Lowest unoccupied state (CBM) at    -1.81470411 eV
  | Occupation number:      1.00000000

  Overall HOMO-LUMO gap:      5.96396516 eV.

  Total energy components:
  | Sum of eigenvalues            :        -294.47502914 Ha       -8013.07324359 eV
  | XC energy correction          :         -65.38420783 Ha       -1779.19481946 eV
  | XC potential correction       :          83.60625025 Ha        2275.04182218 eV
  | Free-atom electrostatic energy:        -249.75960355 Ha       -6796.30460483 eV
  | Hartree energy correction     :         -10.40648919 Ha        -283.17497854 eV
  | van der Waals energy corr.    :           0.00000000 Ha           0.00000000 eV
  | Entropy correction            :          -0.00010367 Ha          -0.00282095 eV
  | ---------------------------
  | Total energy                  :        -536.41907946 Ha      -14596.70582424 eV
  | Total energy, T -> 0          :        -536.41918312 Ha      -14596.70864518 eV  <-- do not rely on this value for anything but (periodic) metals
  | Electronic free energy        :        -536.41928679 Ha      -14596.71146613 eV

  Derived energy quantities:
  | Kinetic energy                :         537.67428925 Ha       14630.86182065 eV
  | Electrostatic energy          :       -1008.70916088 Ha      -27448.37282542 eV
  | Energy correction for multipole
  | error in Hartree potential    :           0.00079614 Ha           0.02166413 eV
  | Sum of eigenvalues per atom                           :        -364.23060198 eV
  | Total energy (T->0) per atom                          :        -663.48675660 eV  <-- do not rely on this value for anything but (periodic) metals
  | Electronic free energy per atom                       :        -663.48688482 eV

  Self-consistency convergence accuracy:
  | Change of charge density      : 0.5739E+00
  | Change of sum of eigenvalues  : 0.2018E+03 eV
  | Change of total energy        : 0.5211E+01 eV

  End self-consistency iteration #     2       :  max(cpu_time)    wall_clock(cpu1)
  | Time for this iteration                    :        4.493 s           4.492 s
  | Charge density update                      :        1.420 s           1.419 s
  | Density mixing                             :        0.008 s           0.008 s
  | Hartree multipole update                   :        0.007 s           0.007 s
  | Hartree multipole summation                :        0.683 s           0.683 s
  | Integration                                :        2.248 s           2.248 s
  | Solution of K.-S. eqns.                    :        0.127 s           0.127 s
  | Total energy evaluation                    :        0.000 s           0.000 s
------------------------------------------------------------

------------------------------------------------------------
          Begin self-consistency iteration #    3

  Date     :  20150727, Time     :  115846.482
------------------------------------------------------------
  Evaluating new KS density.
  Integration grid: deviation in total charge (<rho> - N_e) =  -5.329071E-12
  Pulay mixing of updated and previous charge densities.

  Evaluating partitioned Hartree potential by multipole expansion.
  | Analytical far-field extrapolation by fixed multipoles:
  | Hartree multipole sum: apparent total charge =  -0.383631E-05
  Summing up the Hartree potential.
  Time summed over all CPUs for potential: real work        5.434 s, elapsed        5.457 s
  | RMS charge density error from multipole expansion :   0.169346E-01

  Integrating Hamiltonian matrix: batch-based integration.
  Time summed over all CPUs for integration: real work       17.685 s, elapsed       17.970 s

  Updating Kohn-Sham eigenvalues, eigenvectors, occupation numbers, and Fermi level.
  Solving generalized eigenproblem
  Updating Kohn-Sham eigenvalues and eigenfunctions.
  Solving real generalised eigenvalue problem by standard LAPACK (fast)
  Determining occupation numbers for Kohn-Sham eigenstates.
  | Chemical potential (Fermi level) in eV                 : -.17358365E+01
  | Error in electron count due to remaining E_F inaccuracy: 0.00000000E+00
  | Maximum occupation number of highest empty state:  0.00E+00

  Highest occupied state (VBM) at     -1.73583652 eV
  | Occupation number:      1.00000000

  Lowest unoccupied state (CBM) at    -1.73583652 eV
  | Occupation number:      1.00000000

  Overall HOMO-LUMO gap:      0.00000000 eV.

  Total energy components:
  | Sum of eigenvalues            :        -294.84303046 Ha       -8023.08706892 eV
  | XC energy correction          :         -65.39695636 Ha       -1779.54172453 eV
  | XC potential correction       :          83.61003581 Ha        2275.14483240 eV
  | Free-atom electrostatic energy:        -249.75960355 Ha       -6796.30460483 eV
  | Hartree energy correction     :         -10.02817646 Ha        -272.88056553 eV
  | van der Waals energy corr.    :           0.00000000 Ha           0.00000000 eV
  | Entropy correction            :          -0.00010367 Ha          -0.00282095 eV
  | ---------------------------
  | Total energy                  :        -536.41773102 Ha      -14596.66913141 eV
  | Total energy, T -> 0          :        -536.41783469 Ha      -14596.67195236 eV  <-- do not rely on this value for anything but (periodic) metals
  | Electronic free energy        :        -536.41793836 Ha      -14596.67477330 eV

  Derived energy quantities:
  | Kinetic energy                :         535.16319510 Ha       14562.53147225 eV
  | Electrostatic energy          :       -1006.18396977 Ha      -27379.65887912 eV
  | Energy correction for multipole
  | error in Hartree potential    :          -0.00622062 Ha          -0.16927175 eV
  | Sum of eigenvalues per atom                           :        -364.68577586 eV
  | Total energy (T->0) per atom                          :        -663.48508874 eV  <-- do not rely on this value for anything but (periodic) metals
  | Electronic free energy per atom                       :        -663.48521697 eV

  Self-consistency convergence accuracy:
  | Change of charge density      : 0.2712E+00
  | Change of sum of eigenvalues  : -.1001E+02 eV
  | Change of total energy        : 0.3669E-01 eV

  End self-consistency iteration #     3       :  max(cpu_time)    wall_clock(cpu1)
  | Time for this iteration                    :        4.495 s           4.496 s
  | Charge density update                      :        1.418 s           1.417 s
  | Density mixing                             :        0.010 s           0.011 s
  | Hartree multipole update                   :        0.007 s           0.007 s
  | Hartree multipole summation                :        0.683 s           0.683 s
  | Integration                                :        2.250 s           2.249 s
  | Solution of K.-S. eqns.                    :        0.127 s           0.127 s
  | Total energy evaluation                    :        0.000 s           0.000 s
------------------------------------------------------------

------------------------------------------------------------
          Begin self-consistency iteration #    4

  Date     :  20150727, Time     :  115850.978
------------------------------------------------------------
  Evaluating new KS density.
  Integration grid: deviation in total charge (<rho> - N_e) =   2.842171E-14
  Pulay mixing of updated and previous charge densities.

  Evaluating partitioned Hartree potential by multipole expansion.
  | Analytical far-field extrapolation by fixed multipoles:
  | Hartree multipole sum: apparent total charge =  -0.451387E-05
  Summing up the Hartree potential.
  Time summed over all CPUs for potential: real work        5.434 s, elapsed        5.456 s
  | RMS charge density error from multipole expansion :   0.210111E-01

  Integrating Hamiltonian matrix: batch-based integration.
  Time summed over all CPUs for integration: real work       17.679 s, elapsed       17.969 s

  Updating Kohn-Sham eigenvalues, eigenvectors, occupation numbers, and Fermi level.
  Solving generalized eigenproblem
  Updating Kohn-Sham eigenvalues and eigenfunctions.
  Solving real generalised eigenvalue problem by standard LAPACK (fast)
  Determining occupation numbers for Kohn-Sham eigenstates.
  | Chemical potential (Fermi level) in eV                 : -.15952185E+01
  | Error in electron count due to remaining E_F inaccuracy: -.11368684E-12
  | Maximum occupation number of highest empty state:  0.00E+00

  Highest occupied state (VBM) at     -6.95455853 eV
  | Occupation number:      2.00000000

  Lowest unoccupied state (CBM) at    -1.59521847 eV
  | Occupation number:      1.00000000

  Overall HOMO-LUMO gap:      5.35934005 eV.

  Total energy components:
  | Sum of eigenvalues            :        -293.30573934 Ha       -7981.25524922 eV
  | XC energy correction          :         -65.60075057 Ha       -1785.08724716 eV
  | XC potential correction       :          83.87147992 Ha        2282.25908858 eV
  | Free-atom electrostatic energy:        -249.75960355 Ha       -6796.30460483 eV
  | Hartree energy correction     :         -11.61717343 Ha        -316.11937314 eV
  | van der Waals energy corr.    :           0.00000000 Ha           0.00000000 eV
  | Entropy correction            :          -0.00010367 Ha          -0.00282095 eV
  | ---------------------------
  | Total energy                  :        -536.41178698 Ha      -14596.50738577 eV
  | Total energy, T -> 0          :        -536.41189065 Ha      -14596.51020672 eV  <-- do not rely on this value for anything but (periodic) metals
  | Electronic free energy        :        -536.41199431 Ha      -14596.51302766 eV

  Derived energy quantities:
  | Kinetic energy                :         535.27324679 Ha       14565.52613101 eV
  | Electrostatic energy          :       -1006.08428320 Ha      -27376.94626962 eV
  | Energy correction for multipole
  | error in Hartree potential    :          -0.00848965 Ha          -0.23101525 eV
  | Sum of eigenvalues per atom                           :        -362.78432951 eV
  | Total energy (T->0) per atom                          :        -663.47773667 eV  <-- do not rely on this value for anything but (periodic) metals
  | Electronic free energy per atom                       :        -663.47786489 eV

  Self-consistency convergence accuracy:
  | Change of charge density      : 0.1162E+00
  | Change of sum of eigenvalues  : 0.4183E+02 eV
  | Change of total energy        : 0.1617E+00 eV

  End self-consistency iteration #     4       :  max(cpu_time)    wall_clock(cpu1)
  | Time for this iteration                    :        4.500 s           4.501 s
  | Charge density update                      :        1.421 s           1.421 s
  | Density mixing                             :        0.013 s           0.012 s
  | Hartree multipole update                   :        0.007 s           0.007 s
  | Hartree multipole summation                :        0.683 s           0.682 s
  | Integration                                :        2.250 s           2.250 s
  | Solution of K.-S. eqns.                    :        0.127 s           0.127 s
  | Total energy evaluation                    :        0.000 s           0.000 s
------------------------------------------------------------

------------------------------------------------------------
          Begin self-consistency iteration #    5

  Date     :  20150727, Time     :  115855.479
------------------------------------------------------------
  Evaluating new KS density.
  Integration grid: deviation in total charge (<rho> - N_e) =  -9.947598E-14
  Pulay mixing of updated and previous charge densities.

  Evaluating partitioned Hartree potential by multipole expansion.
  | Analytical far-field extrapolation by fixed multipoles:
  | Hartree multipole sum: apparent total charge =  -0.458181E-05
  Summing up the Hartree potential.
  Time summed over all CPUs for potential: real work        5.434 s, elapsed        5.455 s
  | RMS charge density error from multipole expansion :   0.213733E-01

  Integrating Hamiltonian matrix: batch-based integration.
  Time summed over all CPUs for integration: real work       17.689 s, elapsed       17.960 s

  Updating Kohn-Sham eigenvalues, eigenvectors, occupation numbers, and Fermi level.
  Solving generalized eigenproblem
  Updating Kohn-Sham eigenvalues and eigenfunctions.
  Solving real generalised eigenvalue problem by standard LAPACK (fast)
  Determining occupation numbers for Kohn-Sham eigenstates.
  | Chemical potential (Fermi level) in eV                 : -.16028137E+01
  | Error in electron count due to remaining E_F inaccuracy: 0.00000000E+00
  | Maximum occupation number of highest empty state:  0.00E+00

  Highest occupied state (VBM) at     -1.60281370 eV
  | Occupation number:      1.00000000

  Lowest unoccupied state (CBM) at    -1.60281370 eV
  | Occupation number:      1.00000000

  Overall HOMO-LUMO gap:      0.00000000 eV.

  Total energy components:
  | Sum of eigenvalues            :        -293.30277599 Ha       -7981.17461238 eV
  | XC energy correction          :         -65.60271363 Ha       -1785.14066484 eV
  | XC potential correction       :          83.87328475 Ha        2282.30820048 eV
  | Free-atom electrostatic energy:        -249.75960355 Ha       -6796.30460483 eV
  | Hartree energy correction     :         -11.61968398 Ha        -316.18768868 eV
  | van der Waals energy corr.    :           0.00000000 Ha           0.00000000 eV
  | Entropy correction            :          -0.00010367 Ha          -0.00282095 eV
  | ---------------------------
  | Total energy                  :        -536.41149241 Ha      -14596.49937025 eV
  | Total energy, T -> 0          :        -536.41159608 Ha      -14596.50219119 eV  <-- do not rely on this value for anything but (periodic) metals
  | Electronic free energy        :        -536.41169975 Ha      -14596.50501214 eV

  Derived energy quantities:
  | Kinetic energy                :         535.27721699 Ha       14565.63416558 eV
  | Electrostatic energy          :       -1006.08599577 Ha      -27376.99287099 eV
  | Energy correction for multipole
  | error in Hartree potential    :          -0.00910471 Ha          -0.24775170 eV
  | Sum of eigenvalues per atom                           :        -362.78066420 eV
  | Total energy (T->0) per atom                          :        -663.47737233 eV  <-- do not rely on this value for anything but (periodic) metals
  | Electronic free energy per atom                       :        -663.47750055 eV

  Self-consistency convergence accuracy:
  | Change of charge density      : 0.2637E-01
  | Change of sum of eigenvalues  : 0.8064E-01 eV
  | Change of total energy        : 0.8016E-02 eV

  End self-consistency iteration #     5       :  max(cpu_time)    wall_clock(cpu1)
  | Time for this iteration                    :        4.499 s           4.500 s
  | Charge density update                      :        1.419 s           1.419 s
  | Density mixing                             :        0.014 s           0.015 s
  | Hartree multipole update                   :        0.007 s           0.007 s
  | Hartree multipole summation                :        0.683 s           0.683 s
  | Integration                                :        2.248 s           2.248 s
  | Solution of K.-S. eqns.                    :        0.127 s           0.127 s
  | Total energy evaluation                    :        0.000 s           0.000 s
------------------------------------------------------------

------------------------------------------------------------
          Begin self-consistency iteration #    6

  Date     :  20150727, Time     :  115859.979
------------------------------------------------------------
  Evaluating new KS density.
  Integration grid: deviation in total charge (<rho> - N_e) =   2.842171E-14
  Pulay mixing of updated and previous charge densities.

  Evaluating partitioned Hartree potential by multipole expansion.
  | Analytical far-field extrapolation by fixed multipoles:
  | Hartree multipole sum: apparent total charge =  -0.464680E-05
  Summing up the Hartree potential.
  Time summed over all CPUs for potential: real work        5.459 s, elapsed        5.581 s
  | RMS charge density error from multipole expansion :   0.216409E-01

  Integrating Hamiltonian matrix: batch-based integration.
  Time summed over all CPUs for integration: real work       17.711 s, elapsed       18.001 s

  Updating Kohn-Sham eigenvalues, eigenvectors, occupation numbers, and Fermi level.
  Solving generalized eigenproblem
  Updating Kohn-Sham eigenvalues and eigenfunctions.
  Solving real generalised eigenvalue problem by standard LAPACK (fast)
  Determining occupation numbers for Kohn-Sham eigenstates.
  | Chemical potential (Fermi level) in eV                 : -.16055972E+01
  | Error in electron count due to remaining E_F inaccuracy: 0.10363550E-08
  | Maximum occupation number of highest empty state:  0.00E+00

  Highest occupied state (VBM) at     -1.60559720 eV
  | Occupation number:      1.00000000

  Lowest unoccupied state (CBM) at    -0.90706746 eV
  | Occupation number:      0.00000000

  Overall HOMO-LUMO gap:      0.69852973 eV.

  Total energy components:
  | Sum of eigenvalues            :        -293.32999457 Ha       -7981.91526760 eV
  | XC energy correction          :         -65.60308071 Ha       -1785.15065355 eV
  | XC potential correction       :          83.87332091 Ha        2282.30918464 eV
  | Free-atom electrostatic energy:        -249.75960355 Ha       -6796.30460483 eV
  | Hartree energy correction     :         -11.59216012 Ha        -315.43872627 eV
  | van der Waals energy corr.    :           0.00000000 Ha           0.00000000 eV
  | Entropy correction            :          -0.00010367 Ha          -0.00282095 eV
  | ---------------------------
  | Total energy                  :        -536.41151804 Ha      -14596.50006761 eV
  | Total energy, T -> 0          :        -536.41162171 Ha      -14596.50288856 eV  <-- do not rely on this value for anything but (periodic) metals
  | Electronic free energy        :        -536.41172538 Ha      -14596.50570951 eV

  Derived energy quantities:
  | Kinetic energy                :         535.23091326 Ha       14564.37417694 eV
  | Electrostatic energy          :       -1006.03935059 Ha      -27375.72359099 eV
  | Energy correction for multipole
  | error in Hartree potential    :          -0.00944369 Ha          -0.25697600 eV
  | Sum of eigenvalues per atom                           :        -362.81433035 eV
  | Total energy (T->0) per atom                          :        -663.47740403 eV  <-- do not rely on this value for anything but (periodic) metals
  | Electronic free energy per atom                       :        -663.47753225 eV

  Self-consistency convergence accuracy:
  | Change of charge density      : 0.9059E-02
  | Change of sum of eigenvalues  : -.7407E+00 eV
  | Change of total energy        : -.6974E-03 eV

  End self-consistency iteration #     6       :  max(cpu_time)    wall_clock(cpu1)
  | Time for this iteration                    :        4.522 s           4.522 s
  | Charge density update                      :        1.420 s           1.419 s
  | Density mixing                             :        0.016 s           0.016 s
  | Hartree multipole update                   :        0.007 s           0.007 s
  | Hartree multipole summation                :        0.699 s           0.699 s
  | Integration                                :        2.253 s           2.253 s
  | Solution of K.-S. eqns.                    :        0.127 s           0.128 s
  | Total energy evaluation                    :        0.000 s           0.000 s
------------------------------------------------------------

------------------------------------------------------------
          Begin self-consistency iteration #    7

  Date     :  20150727, Time     :  115904.501
------------------------------------------------------------
  Evaluating new KS density.
  Integration grid: deviation in total charge (<rho> - N_e) =   1.036369E-09
  Pulay mixing of updated and previous charge densities.

  Evaluating partitioned Hartree potential by multipole expansion.
  | Analytical far-field extrapolation by fixed multipoles:
  | Hartree multipole sum: apparent total charge =  -0.486453E-05
  Summing up the Hartree potential.
  Time summed over all CPUs for potential: real work        5.434 s, elapsed        5.456 s
  | RMS charge density error from multipole expansion :   0.217447E-01

  Integrating Hamiltonian matrix: batch-based integration.
  Time summed over all CPUs for integration: real work       17.679 s, elapsed       17.958 s

  Updating Kohn-Sham eigenvalues, eigenvectors, occupation numbers, and Fermi level.
  Solving generalized eigenproblem
  Updating Kohn-Sham eigenvalues and eigenfunctions.
  Solving real generalised eigenvalue problem by standard LAPACK (fast)
  Determining occupation numbers for Kohn-Sham eigenstates.
  | Chemical potential (Fermi level) in eV                 : -.16191430E+01
  | Error in electron count due to remaining E_F inaccuracy: 0.17706725E-10
  | Maximum occupation number of highest empty state:  0.00E+00

  Highest occupied state (VBM) at     -1.61914300 eV
  | Occupation number:      1.00000000

  Lowest unoccupied state (CBM) at    -0.92150466 eV
  | Occupation number:      0.00000000

  Overall HOMO-LUMO gap:      0.69763834 eV.

  Total energy components:
  | Sum of eigenvalues            :        -293.39972052 Ha       -7983.81260714 eV
  | XC energy correction          :         -65.59897859 Ha       -1785.03902928 eV
  | XC potential correction       :          83.86756554 Ha        2282.15257299 eV
  | Free-atom electrostatic energy:        -249.75960355 Ha       -6796.30460483 eV
  | Hartree energy correction     :         -11.52076499 Ha        -313.49596593 eV
  | van der Waals energy corr.    :           0.00000000 Ha           0.00000000 eV
  | Entropy correction            :          -0.00010367 Ha          -0.00282095 eV
  | ---------------------------
  | Total energy                  :        -536.41150211 Ha      -14596.49963419 eV
  | Total energy, T -> 0          :        -536.41160578 Ha      -14596.50245514 eV  <-- do not rely on this value for anything but (periodic) metals
  | Electronic free energy        :        -536.41170945 Ha      -14596.50527609 eV

  Derived energy quantities:
  | Kinetic energy                :         535.27438071 Ha       14565.55698656 eV
  | Electrostatic energy          :       -1006.08690423 Ha      -27377.01759147 eV
  | Energy correction for multipole
  | error in Hartree potential    :          -0.00987938 Ha          -0.26883164 eV
  | Sum of eigenvalues per atom                           :        -362.90057305 eV
  | Total energy (T->0) per atom                          :        -663.47738432 eV  <-- do not rely on this value for anything but (periodic) metals
  | Electronic free energy per atom                       :        -663.47751255 eV

  Self-consistency convergence accuracy:
  | Change of charge density      : 0.7035E-02
  | Change of sum of eigenvalues  : -.1897E+01 eV
  | Change of total energy        : 0.4334E-03 eV

  End self-consistency iteration #     7       :  max(cpu_time)    wall_clock(cpu1)
  | Time for this iteration                    :        4.501 s           4.501 s
  | Charge density update                      :        1.418 s           1.418 s
  | Density mixing                             :        0.019 s           0.018 s
  | Hartree multipole update                   :        0.007 s           0.007 s
  | Hartree multipole summation                :        0.683 s           0.683 s
  | Integration                                :        2.248 s           2.248 s
  | Solution of K.-S. eqns.                    :        0.126 s           0.126 s
  | Total energy evaluation                    :        0.001 s           0.000 s
------------------------------------------------------------

------------------------------------------------------------
          Begin self-consistency iteration #    8

  Date     :  20150727, Time     :  115909.002
------------------------------------------------------------
  Evaluating new KS density.
  Integration grid: deviation in total charge (<rho> - N_e) =   1.769251E-11
  Pulay mixing of updated and previous charge densities.

  Evaluating partitioned Hartree potential by multipole expansion.
  | Analytical far-field extrapolation by fixed multipoles:
  | Hartree multipole sum: apparent total charge =  -0.492923E-05
  Summing up the Hartree potential.
  Time summed over all CPUs for potential: real work        5.435 s, elapsed        5.455 s
  | RMS charge density error from multipole expansion :   0.217743E-01

  Integrating Hamiltonian matrix: batch-based integration.
  Time summed over all CPUs for integration: real work       17.669 s, elapsed       17.942 s

  Updating Kohn-Sham eigenvalues, eigenvectors, occupation numbers, and Fermi level.
  Solving generalized eigenproblem
  Updating Kohn-Sham eigenvalues and eigenfunctions.
  Solving real generalised eigenvalue problem by standard LAPACK (fast)
  Determining occupation numbers for Kohn-Sham eigenstates.
  | Chemical potential (Fermi level) in eV                 : -.16263647E+01
  | Error in electron count due to remaining E_F inaccuracy: 0.34958703E-11
  | Maximum occupation number of highest empty state:  0.00E+00

  Highest occupied state (VBM) at     -1.62636469 eV
[...]
  | Total energy corrected        :         -0.145966873327954E+05 eV  <-- do not rely on this value for anything but (periodic) metals
  | Electronic free energy        :         -0.145966901537433E+05 eV
  Total atomic forces (unitary forces cleaned) [eV/Ang]:
  |   1          0.615638370881696E+00          0.131686677995109E+01         -0.149217692552564E+01
  |   2          0.164935607257352E+00         -0.452893969745142E+00          0.738893932937760E-01
  |   3         -0.760464818003638E+00         -0.302023908095117E+00          0.418877943260329E-01
  |   4         -0.654500071414194E-01         -0.212441989893107E+00          0.120083828605637E+01
  |   5         -0.656202608231528E+00         -0.221338829860715E+01         -0.154089362097165E+01
  |   6          0.120490878024568E+00          0.158567995626996E+01          0.134956836383003E+01
  |   7          0.368498349129767E+00          0.508928744656856E+00          0.151680669239246E+00
  |   8          0.390386087175204E+00         -0.961850923398694E+00          0.267341308383431E+01
  |   9          0.104572746528935E+00          0.346678713825369E+00          0.204302802847277E+00
  |  10         -0.348406520672266E+00          0.349432941110631E+00         -0.272447722798949E+01
  |  11         -0.476119314016484E+00          0.299179313516919E+00          0.212218628728764E+01
  |  12         -0.200970974117121E+00          0.187811687292389E+00         -0.183532713061313E+01
  |  13          0.573976974616870E+00         -0.711795787690684E+00          0.143696690355740E+00
  |  14          0.129591422873349E+01          0.708915171783144E+00         -0.243136396061528E+01
  |  15         -0.182605248758332E+00         -0.123563672583391E+00          0.309505897091875E+00
  |  16         -0.830605996722473E+00         -0.472002145209267E+00          0.183344254265627E+01
  |  17          0.282312301797553E+00          0.140538814071364E+01         -0.829624215820039E+00
  |  18          0.447529918267970E+00         -0.493805595212277E+00          0.397431646440334E+00
  |  19         -0.629060978748860E+00         -0.920398533847544E+00          0.406703218560254E+00
  |  20          0.726387267016147E+00          0.859292048172366E-01         -0.130519219131297E+01
  |  21         -0.435759697988794E+00          0.648684311057594E+00          0.534301401231024E+00
  |  22         -0.504996565028635E+00         -0.579330140712457E+00          0.716207195798011E+00
 
  ------------------------------------ 
  Start decomposition of the XC Energy 
  ------------------------------------ 
  Hartree-Fock part   :          0.000000000 Ha              0.000000000 eV
  ------------------------------------ 
  X Energy            :        -63.267894898 Ha          -1721.607014587 eV
  C Energy GGA        :         -2.328878080 Ha            -63.371996880 eV
  Total XC Energy     :        -65.596772978 Ha          -1784.979011467 eV
  LDA X and C from self-consistent density 
  X Energy LDA        :        -57.068233687 Ha          -1552.905649584 eV
  C Energy LDA        :         -4.666643959 Ha           -126.985843098 eV
  ------------------------------------ 
  End decomposition of the XC Energy 
  ------------------------------------ 
  Performing Hirshfeld analysis of fragment charges and moments.
  ----------------------------------------------------------------------
  | Atom     1: O
  |   Hirshfeld charge        :     -0.13186559
  |   Free atom volume        :     23.95238533
  |   Hirshfeld volume        :     21.70363318
  |   Hirshfeld dipole vector :     -0.00314863       0.03086558       0.03185896
  |   Hirshfeld dipole moment :      0.04447011
  |   Hirshfeld second moments:      0.08761088      -0.00238287      -0.00221828
  |                                 -0.00238287       0.04393859      -0.02420327
  |                                 -0.00221828      -0.02420327       0.05307394
  ----------------------------------------------------------------------
  | Atom     2: H
  |   Hirshfeld charge        :      0.11367906
  |   Free atom volume        :     10.44207651
  |   Hirshfeld volume        :      9.57846089
  |   Hirshfeld dipole vector :     -0.00868707       0.01448222       0.00750586
  |   Hirshfeld dipole moment :      0.01848074
  |   Hirshfeld second moments:      0.04633102       0.01972200       0.00134663
  |                                  0.01972200       0.03060135       0.01136911
  |                                  0.00134663       0.01136911       0.06168313
  ----------------------------------------------------------------------
  | Atom     3: H
  |   Hirshfeld charge        :      0.12642942
  |   Free atom volume        :     10.44207651
  |   Hirshfeld volume        :     11.45431736
  |   Hirshfeld dipole vector :      0.02723503       0.01841895       0.02114964
  |   Hirshfeld dipole moment :      0.03909363
  |   Hirshfeld second moments:     -0.00988560      -0.01112611       0.00810366
  |                                 -0.01112611       0.03651441       0.00109569
  |                                  0.00810366       0.00109569       0.03520392
  ----------------------------------------------------------------------
  | Atom     4: H
  |   Hirshfeld charge        :      0.11027698
  |   Free atom volume        :     10.44207651
  |   Hirshfeld volume        :      9.16316851
  |   Hirshfeld dipole vector :     -0.01629046       0.00677857       0.01844524
  |   Hirshfeld dipole moment :      0.02552558
  |   Hirshfeld second moments:      0.07006823       0.00664035       0.01083465
  |                                  0.00664035       0.07095874       0.00466472
  |                                  0.01083465       0.00466472       0.02006858
  ----------------------------------------------------------------------
  | Atom     5: O
  |   Hirshfeld charge        :     -0.23700364
  |   Free atom volume        :     23.95238533
  |   Hirshfeld volume        :     21.86236546
  |   Hirshfeld dipole vector :     -0.02313322       0.02796968      -0.00258272
  |   Hirshfeld dipole moment :      0.03638845
  |   Hirshfeld second moments:      0.03348174       0.04579921      -0.01258054
  |                                  0.04579921       0.03213999       0.00898534
  |                                 -0.01258054       0.00898534       0.05273068
  ----------------------------------------------------------------------
  | Atom     6: H
  |   Hirshfeld charge        :      0.09317304
  |   Free atom volume        :     10.44207651
  |   Hirshfeld volume        :      9.13599200
  |   Hirshfeld dipole vector :      0.00984032       0.03362257       0.02191598
  |   Hirshfeld dipole moment :      0.04132335
  |   Hirshfeld second moments:      0.06111608       0.00280352      -0.00860092
  |                                  0.00280352       0.03266198      -0.01875035
  |                                 -0.00860092      -0.01875035       0.06094119
  ----------------------------------------------------------------------
  | Atom     7: H
  |   Hirshfeld charge        :      0.12786455
  |   Free atom volume        :     10.44207651
  |   Hirshfeld volume        :      9.92777882
  |   Hirshfeld dipole vector :     -0.06648633      -0.03796968       0.01592275
  |   Hirshfeld dipole moment :      0.07820270
  |   Hirshfeld second moments:      0.03560832       0.00691291       0.00226809
  |                                  0.00691291       0.05685271       0.01038114
  |                                  0.00226809       0.01038114       0.06238523
  ----------------------------------------------------------------------
  | Atom     8: O
  |   Hirshfeld charge        :     -0.21677535
  |   Free atom volume        :     23.95238533
  |   Hirshfeld volume        :     22.05333486
  |   Hirshfeld dipole vector :      0.03153012       0.00384046      -0.01056868
  |   Hirshfeld dipole moment :      0.03347529
  |   Hirshfeld second moments:     -0.00067862      -0.00057946       0.03406221
  |                                 -0.00057946       0.05679495       0.00366304
  |                                  0.03406221       0.00366304       0.06757179
  ----------------------------------------------------------------------
  | Atom     9: H
  |   Hirshfeld charge        :      0.09950553
  |   Free atom volume        :     10.44207651
  |   Hirshfeld volume        :      9.81973190
  |   Hirshfeld dipole vector :      0.01707550       0.02666025       0.02142136
  |   Hirshfeld dipole moment :      0.03822585
  |   Hirshfeld second moments:      0.03007893      -0.01556461       0.00810068
  |                                 -0.01556461       0.03646175      -0.01317878
  |                                  0.00810068      -0.01317878       0.05873377
  ----------------------------------------------------------------------
  | Atom    10: H
  |   Hirshfeld charge        :      0.11224774
  |   Free atom volume        :     10.44207651
  |   Hirshfeld volume        :     11.36717895
  |   Hirshfeld dipole vector :     -0.01466904       0.00564380      -0.06126946
  |   Hirshfeld dipole moment :      0.06325330
  |   Hirshfeld second moments:      0.01708606       0.00231413       0.01544280
  |                                  0.00231413       0.04518749       0.00670120
  |                                  0.01544280       0.00670120       0.01906996
  ----------------------------------------------------------------------
  | Atom    11: O
  |   Hirshfeld charge        :     -0.21722382
  |   Free atom volume        :     23.95238533
  |   Hirshfeld volume        :     21.47307236
  |   Hirshfeld dipole vector :     -0.00342249       0.00376493      -0.01443350
  |   Hirshfeld dipole moment :      0.01530405
  |   Hirshfeld second moments:      0.03442227      -0.00984097       0.00652933
  |                                 -0.00984097       0.03953045      -0.00614587
  |                                  0.00652933      -0.00614587       0.07008144
  ----------------------------------------------------------------------
  | Atom    12: H
  |   Hirshfeld charge        :      0.11055270
  |   Free atom volume        :     10.44207651
  |   Hirshfeld volume        :     10.22437027
  |   Hirshfeld dipole vector :      0.01065803      -0.00885671       0.06041708
  |   Hirshfeld dipole moment :      0.06198596
  |   Hirshfeld second moments:      0.04701334      -0.00968216      -0.00124165
  |                                 -0.00968216       0.05183571       0.00094670
  |                                 -0.00124165       0.00094670       0.02975566
  ----------------------------------------------------------------------
  | Atom    13: H
  |   Hirshfeld charge        :      0.08793540
  |   Free atom volume        :     10.44207651
  |   Hirshfeld volume        :      9.11641645
  |   Hirshfeld dipole vector :     -0.01622199       0.01944101      -0.00659539
  |   Hirshfeld dipole moment :      0.02616495
  |   Hirshfeld second moments:      0.03620345       0.01502943      -0.01270183
  |                                  0.01502943       0.04131393       0.00805334
  |                                 -0.01270183       0.00805334       0.07161657
  ----------------------------------------------------------------------
  | Atom    14: O
  |   Hirshfeld charge        :     -0.29674057
  |   Free atom volume        :     23.95238533
  |   Hirshfeld volume        :     22.95212433
  |   Hirshfeld dipole vector :     -0.02147420       0.03550329       0.04921555
  |   Hirshfeld dipole moment :      0.06437232
  |   Hirshfeld second moments:      0.03870171       0.04037050       0.01588362
  |                                  0.04037050      -0.01509741      -0.02176270
  |                                  0.01588362      -0.02176270      -0.00877460
  ----------------------------------------------------------------------
  | Atom    15: H
  |   Hirshfeld charge        :      0.10836235
  |   Free atom volume        :     10.44207651
  |   Hirshfeld volume        :     10.46496399
  |   Hirshfeld dipole vector :      0.06257482       0.04680395       0.03064747
  |   Hirshfeld dipole moment :      0.08393739
  |   Hirshfeld second moments:      0.05539341       0.00543675      -0.00267136
  |                                  0.00543675       0.02159439      -0.01377148
  |                                 -0.00267136      -0.01377148       0.04227868
  ----------------------------------------------------------------------
  | Atom    16: H
  |   Hirshfeld charge        :      0.07654656
  |   Free atom volume        :     10.44207651
  |   Hirshfeld volume        :      9.29486129
  |   Hirshfeld dipole vector :     -0.03271183      -0.00891185       0.02888865
  |   Hirshfeld dipole moment :      0.04454255
  |   Hirshfeld second moments:      0.04864230       0.00433934       0.03030163
  |                                  0.00433934       0.05089873       0.00463921
  |                                  0.03030163       0.00463921       0.03874476
  ----------------------------------------------------------------------
  | Atom    17: O
  |   Hirshfeld charge        :     -0.22233084
  |   Free atom volume        :     23.95238533
  |   Hirshfeld volume        :     21.94511722
  |   Hirshfeld dipole vector :      0.00489076      -0.01676878       0.01070756
  |   Hirshfeld dipole moment :      0.02048813
  |   Hirshfeld second moments:      0.03667661       0.00592569       0.00353375
  |                                  0.00592569       0.05486571      -0.02150892
  |                                  0.00353375      -0.02150892       0.02744836
  ----------------------------------------------------------------------
  | Atom    18: H
  |   Hirshfeld charge        :      0.09093702
  |   Free atom volume        :     10.44207651
  |   Hirshfeld volume        :      9.68972429
  |   Hirshfeld dipole vector :      0.02672187      -0.01973719       0.01865087
  |   Hirshfeld dipole moment :      0.03809816
  |   Hirshfeld second moments:      0.03492963       0.02257673      -0.00693691
  |                                  0.02257673       0.05190526      -0.00317969
  |                                 -0.00693691      -0.00317969       0.04097234
  ----------------------------------------------------------------------
  | Atom    19: H
  |   Hirshfeld charge        :      0.09070896
  |   Free atom volume        :     10.44207651
  |   Hirshfeld volume        :     12.22944191
  |   Hirshfeld dipole vector :      0.01627895       0.03384359      -0.01355053
  |   Hirshfeld dipole moment :      0.03992505
  |   Hirshfeld second moments:      0.02015824      -0.00656385       0.00708760
  |                                 -0.00656385      -0.00317172       0.00117545
  |                                  0.00708760       0.00117545      -0.00054048
  ----------------------------------------------------------------------
  | Atom    20: O
  |   Hirshfeld charge        :     -0.24177361
  |   Free atom volume        :     23.95238533
  |   Hirshfeld volume        :     22.13857977
  |   Hirshfeld dipole vector :      0.03089539       0.02127989       0.00930680
  |   Hirshfeld dipole moment :      0.03865197
  |   Hirshfeld second moments:      0.01679504      -0.03620666      -0.03410306
  |                                 -0.03620666       0.03055586      -0.00514861
  |                                 -0.03410306      -0.00514861       0.04334752
  ----------------------------------------------------------------------
  | Atom    21: H
  |   Hirshfeld charge        :      0.11595778
  |   Free atom volume        :     10.44207651
  |   Hirshfeld volume        :      9.94714899
  |   Hirshfeld dipole vector :     -0.03926926       0.05863978       0.04285234
  |   Hirshfeld dipole moment :      0.08256525
  |   Hirshfeld second moments:      0.05052853      -0.00583082      -0.00878438
  |                                 -0.00583082       0.04688833      -0.01097317
  |                                 -0.00878438      -0.01097317       0.05470703
  ----------------------------------------------------------------------
  | Atom    22: H
  |   Hirshfeld charge        :      0.09946108
  |   Free atom volume        :     10.44207651
  |   Hirshfeld volume        :      9.41474560
  |   Hirshfeld dipole vector :      0.02223658       0.02036058      -0.03055340
  |   Hirshfeld dipole moment :      0.04292469
  |   Hirshfeld second moments:      0.04621172      -0.02090821       0.00804325
  |                                 -0.02090821       0.05772479       0.01187711
  |                                  0.00804325       0.01187711       0.03913763
  ----------------------------------------------------------------------


------------------------------------------------------------------------------
  Final output of selected total energy values:

  The following output summarizes some interesting total energy values
  at the end of a run (AFTER all relaxation, molecular dynamics, etc.).

  | Total energy of the DFT / Hartree-Fock s.c.f. calculation      :         -14596.684511847 eV
  | Final zero-broadening corrected energy (caution - metals only) :         -14596.687332795 eV
  | For reference only, the value of 1 Hartree used in FHI-aims is :             27.211384500 eV

  Before relying on these values, please be sure to understand exactly which
  total energy value is referred to by a given number. Different objects may
  all carry the same name 'total energy'. Definitions:

  Total energy of the DFT / Hartree-Fock s.c.f. calculation:
  | Note that this energy does not include ANY quantities calculated after the
  | s.c.f. cycle, in particular not ANY RPA, MP2, etc. many-body perturbation terms.

  Final zero-broadening corrected energy:
  | For metallic systems only, a broadening of the occupation numbers at the Fermi
  | level can be extrapolated back to zero broadening by an electron-gas inspired
  | formula. For all systems that are not real metals, this value can be
  | meaningless and should be avoided.

------------------------------------------------------------------------------

------------------------------------------------------------
          Leaving FHI-aims.
          Date     :  20150727, Time     :  115958.455

          Computational steps:
          | Number of self-consistency cycles          :           16

          Detailed time accounting                     :  max(cpu_time)    wall_clock(cpu1)
          | Total time                                 :       86.184 s          86.234 s
          | Preparation time                           :        0.172 s           0.581 s
          | Grid partitioning                          :        0.215 s           0.215 s
          | Preloading free-atom quantities on grid    :        0.013 s           0.013 s
          | Free-atom superposition energy             :        0.127 s           0.127 s
          | Total time for integrations                :       39.497 s          39.498 s
          | Total time for solution of K.-S. equations :        2.502 s           2.499 s
          | Total time for density & force components  :       29.013 s          29.013 s
          | Total time for mixing                      :        0.309 s           0.307 s
          | Total time for Hartree multipole update    :        0.112 s           0.112 s
          | Total time for Hartree multipole sum       :       13.223 s          13.224 s
          | Total time for total energy evaluation     :        0.003 s           0.006 s
          | Total time for scaled ZORA corrections     :        0.000 s           0.000 s
          | Total time for TS (2009) vdW correction    :        0.105 s           0.106 s

          Have a nice day.
------------------------------------------------------------
