  MPI-parallelism will be employed.
------------------------------------------------------------
          Invoking FHI-aims ...
          Version 081213
          Compiled on 2013/08/29 at 17:41:06 on host generoso.

          When using FHI-aims, please cite the following reference:

          Volker Blum, Ralf Gehrke, Felix Hanke, Paula Havu,
          Ville Havu, Xinguo Ren, Karsten Reuter, and Matthias Scheffler,
          'Ab Initio Molecular Simulations with Numeric Atom-Centered Orbitals: FHI-aims',
          Computer Physics Communications 180, 2175-2196 (2009)

          For any questions about FHI-aims, please visit the aimsclub website
          with its forums and wiki. Contributions to both the forums and the
          wiki are warmly encouraged - they are for you, and everyone is welcome there.

------------------------------------------------------------

  Date     :  20150727, Time     :  122521.860
  Time zero on CPU 1             :   0.469920000000000E-01  s.
  Internal wall clock time zero  :           207231921.860  s.

  Using        8 parallel tasks.
  Task        0 on host gen59 reporting.
  Task        1 on host gen59 reporting.
  Task        2 on host gen59 reporting.
  Task        3 on host gen59 reporting.
  Task        4 on host gen59 reporting.
  Task        5 on host gen59 reporting.
  Task        6 on host gen59 reporting.
  Task        7 on host gen59 reporting.

  Performing system and environment tests:
  | Environment variable OMP_NUM_THREADS correctly set to 1.
  | Checking for scalapack...
  | No scalapack compiled in.

  Obtaining array dimensions for all initial allocations:
  
  -----------------------------------------------------------------------
  Parsing control.in (first pass over file, find array dimensions only).
  The contents of control.in will be repeated verbatim below
  unless switched off by setting 'verbatim_writeout .false.' .
  in the first line of control.in .
  -----------------------------------------------------------------------
  
  #########################################################################################
  #
  #  Volker Blum, FHI 2008 : Test run input file control.in
  #
  #########################################################################################
  #
  #  Physical model
  #
    xc                 rpbe
    spin               none
    relativistic       atomic_zora scalar
    charge             0.
   vdw_correction_hirshfeld
  #
  #  SCF convergence
  #
    occupation_type    gaussian 0.01
    mixer              pulay
      n_max_pulay        10
      charge_mix_param   0.1
    sc_accuracy_rho    5E-5
    sc_accuracy_eev    5E-3
    sc_accuracy_etot   5E-6
    sc_iter_limit      3000
  #
  #  Eigenvalue solver
  #
    KS_method          lapack
      empty_states       8
      basis_threshold    0.e-5
  #
  #  Efficiency
  #
  #   all previous settings are now default, except stratmann still
  #   undecided. Continue to handle stratmann with care, if at all.
  #
  #  partition_type stratmann
    partition_type rho_r2
  #  hartree_partition_type stratmann
  #
  #  Oprions for large clusters (100's of atoms: memory saving / better scaling)
  #
  # for periodic systems:
  #
    density_update_method orbital
    packed_matrix_format none
  #  k_grid 6 6 6
  #  output k_eigenvalue 1
  #  distributed_spline_storage .true.
  #
  #  Relaxation
  #
  #  relax_geometry   bfgs 5.e-3
    sc_accuracy_forces 5.E-4
    final_forces_cleaned .true.
  #
  #  Output options
  #
  #  output mulliken
    output Hirshfeld
  #  output dipole
  
  #harmonic_length_scale 0.001
  
  ################################################################################
  #
  #  FHI-aims code project
  #  VB, Fritz-Haber Institut, 2007
  #
  #  Suggested "safe" defaults for H atom (to be pasted into control.in file)
  #  Basis constructed for a non-relativistic H2 molecule using the
  #  PW-LDA functional.
  #
  ################################################################################
    species        H
  #     global species definitions
      nucleus             1
      cut_pot             4.0  2.0  1.0
      cut_free_atom       finite 8.0
      logarithmic         0.00010000 100.00  1.0123
      basis_dep_cutoff    1d-4  # 1d-4 is safe default - please check 5d-4 if you wish!
      radial_base         24 7.0
      radial_multiplier   2
      angular_grids       specified
        division   0.2783  110
        division   0.3822  194
        division   0.5626  302
  #      division   0.5922  434
  #      division   0.6227  590
  #      division   0.7206  770
        outer_grid  302
      l_hartree           4
  ################################################################################
  #
  #  Definition of "minimal" basis
  #
  ################################################################################
  #     valence basis states
      valence      1  s   1.
  #     ion occupancy
      ion_occ      1  s   0.5
  ################################################################################
  #
  #  Suggested additional basis functions. For production calculations,
  #  uncomment them one after another (the most important basis functions are
  #  listed first).
  #
  ################################################################################
  #  "First tier" - improvements: -1014.90 meV to -62.69 meV
       hydro 2 s 2.1
       hydro 2 p 3.5
  #  "Second tier" - improvements: -12.89 meV to -1.83 meV
       hydro 1 s 0.85
       hydro 2 p 3.7
       hydro 2 s 1.2
       hydro 3 d 7
  #  "Third tier" - improvements: -0.25 meV to -0.12 meV
  #     hydro 4 f 11.2
  #     hydro 3 p 4.8
  #     hydro 4 d 9
  #     hydro 3 s 3.2
  
  ################################################################################
  #
  #  FHI-aims code project
  #  VB, Fritz-Haber Institut, 2007
  #
  #  Suggested "safe" defaults for O atom (to be pasted into control.in file)
  #  All values have been tested for a non-relativistic, non-spinpolarized O2
  #  molecule using the PW-LDA functional. Validity for PBE is expected.
  #
  #  Constructed for dimers: 1.0 A, 1.208 A, 1.5 A, 2.0 A, 3.0 A
  #
  ################################################################################
    species        O
  #     global species definitions
      nucleus             8
      mass                15.9994
      l_hartree           4
      cut_pot             4.0  2.0  1.0
      cut_free_atom       finite 8.0
      basis_dep_cutoff    1d-4  # 1d-4 is safe default - please check 5d-4 if you wish!
      logarithmic         0.00010000 100.00  1.0123
      radial_base         36 7.0
      radial_multiplier   2
       angular_grids specified
        division   0.4087  110
        division   0.5181  194
        division   0.6184  302
  #      division   0.7315  434
  #      division   0.7934  590
  #      division   0.9656  770
  #      division   1.4041  974
  #      outer_grid 974
        outer_grid 302
  ################################################################################
  #
  #  Definition of "minimal" basis
  #
  ################################################################################
  #     valence basis states
      valence      2  s   2.
      valence      2  p   4.
  #     ion occupancy
      ion_occ      2  s   1.
      ion_occ      2  p   3.
  ################################################################################
  #
  #  Suggested additional basis functions. For production calculations,
  #  uncomment them one after another (the most important basis functions are
  #  listed first).
  #
  ################################################################################
  #  "First tier" - improvements: -699.05 meV to -159.38 meV
       hydro 2 p 1.8
       hydro 3 d 7.6
       hydro 3 s 6.4
  #  "Second tier" - improvements: -49.91 meV to -5.39 meV
       hydro 4 f 11.6
       hydro 3 p 6.2
       hydro 3 d 5.6
       hydro 5 g 17.6
       hydro 1 s 0.75
  #  "Third tier" - improvements: -2.83 meV to -0.50 meV
  #     ionic 2 p auto
  #     hydro 4 f 10.8
  #     hydro 4 d 4.7
  #     hydro 2 s 6.8
  #  "Fourth tier" - improvements: -0.40 meV to -0.12 meV
  #     hydro 3 p 5
  #     hydro 3 s 3.3
  #     hydro 5 g 15.6
  #     hydro 4 f 17.6
  #     hydro 4 d 14
  # Further basis functions - -0.08 meV and below
  #     hydro 3 s 2.1
  #     hydro 4 d 11.6
  #     hydro 3 p 16
  #     hydro 2 s 17.2
  
  
  -----------------------------------------------------------------------
  Completed first pass over input file control.in .
  -----------------------------------------------------------------------
  
  
  -----------------------------------------------------------------------
  Parsing geometry.in (first pass over file, find array dimensions only).
  The contents of geometry.in will be repeated verbatim below
  unless switched off by setting 'verbatim_writeout .false.' .
  in the first line of geometry.in .
  -----------------------------------------------------------------------
  
  atom      -4.053030000      0.065001000     -1.525160000  O
  atom      -4.566710000      0.974813000     -1.912820000  H
  atom      -3.067820000      0.330172000     -1.477310000  H
  atom      -4.370360000     -0.049164000     -0.572274000  H
  atom      -4.581760000     -0.256435000      0.939478000  O
  atom      -4.349860000      0.471090000      1.504340000  H
  atom      -5.393870000     -0.726611000      1.228070000  H
  atom      -3.818880000      2.024990000      2.187990000  O
  atom      -3.690880000      1.961360000      3.202150000  H
  atom      -4.546490000      2.751300000      2.045370000  H
  atom      -1.975360000      2.858040000      0.453140000  O
  atom      -1.223550000      3.375850000      0.786238000  H
  atom      -2.537520000      2.567960000      1.156120000  H
  atom      -4.066610000      4.258280000     -0.900064000  O
  atom      -3.224110000      3.876870000     -0.569443000  H
  atom      -3.737450000      5.116530000     -1.322720000  H
  
  -----------------------------------------------------------------------
  Completed first pass over input file geometry.in .
  -----------------------------------------------------------------------
  
 
  Basic array size parameters: 
  | Number of species                 :        2
  | Number of atoms                   :       16
  | Max. basis fn. angular momentum   :        4
  | Max. atomic/ionic basis occupied n:        2
  | Max. number of basis fn. types    :        2
  | Max. radial fns per species/type  :        8
  | Max. logarithmic grid size        :     1301
  | Max. radial integration grid size :       73
  | Max. angular integration grid size:      302
  | Max. angular grid division number :        8
  | Radial grid for Hartree potential :     1301
  | Number of spin channels           :        1

------------------------------------------------------------
          Reading file control.in.
------------------------------------------------------------
  XC: Using RPBE gradient-corrected functionals.
  Spin treatment: No spin polarisation.
  Scalar relativistic treatment of kinetic energy: on-site free-atom approximation to ZORA.
  Charge =   0.000000E+00: Neutral system requested explicitly.
  Using non-empirical van der Waals correction (Hirshfeld partitioning):
  Occupation type: Gaussian broadening, width =   0.100000E-01 eV.
  Using pulay charge density mixing.
  Pulay mixing - number of memorized iterations:   10
  Charge density mixing - mixing parameter:     0.1000
  Convergence accuracy of self-consistent charge density: 0.5000E-04
  Convergence accuracy of sum of eigenvalues: 0.5000E-02
  Convergence accuracy of total energy: 0.5000E-05
  Maximum number of s.-c. iterations  :  3000
  Kohn-Sham eigenvalues and eigenfunctions calculated by lapack diagonalisation (D&C).
  Number of empty states per atom:        8
  Threshold for basis singularities: 0.0000E+00
  Partition function in integrals calculations: rho / r^2
 Using packed matrix format           0
  Convergence accuracy of forces: 0.5000E-03
  Cleaning forces before final output.
  Hirshfeld charge analysis will be performed.
 
  Reading configuration options for species H                   .
  | Found nuclear charge :   1.0000
  | Found cutoff potl. onset [A], width [A], scale factor :    4.00000    2.00000    1.00000
  | Found cutoff specification for free atom: Cutoff potential begins at    8.00000 A.
  | Found logarithmic grid data [bohr] : 0.1000E-03 0.1000E+03 0.1012E+01
  | Threshold for basis-dependent cutoff potential is   0.100000E-03
  | Found data for basic radial integration grid :    24 points, outermost radius =    7.000 A
  | Found multiplier for basic radial grid :   2
  | Found angular grid specification: user-specified.
  | Specified grid contains     4 separate shells.
  | Check grid settings after all constraints further below.
  | Found l_max for Hartree potential  :   4
  | Found free-atom valence shell :  1 s   1.000
  | No ionic wave fns used. Skipping ion_occ.
  | Found hydrogenic basis function :  2 s   2.100
  | Found hydrogenic basis function :  2 p   3.500
  | Found hydrogenic basis function :  1 s   0.850
  | Found hydrogenic basis function :  2 p   3.700
  | Found hydrogenic basis function :  2 s   1.200
  | Found hydrogenic basis function :  3 d   7.000
  Species H                   : Missing cutoff potential type.
  Defaulting to exp(1/x)/(1-x)^2 type cutoff potential.
  Species H : On-site basis accuracy parameter (for Gram-Schmidt orthonormalisation) not specified.
  Using default value basis_acc =  0.1000000E-03.
  Species H                   : Using default innermost maximum threshold i_radial=  2 for radial functions.
  Species H                   : Basic radial grid will be enhanced according to radial_multiplier =   2, to contain    49 grid points.
 
  Reading configuration options for species O                   .
  | Found nuclear charge :   8.0000
  | Found atomic mass :    15.9994000000000      amu
  | Found l_max for Hartree potential  :   4
  | Found cutoff potl. onset [A], width [A], scale factor :    4.00000    2.00000    1.00000
  | Found cutoff specification for free atom: Cutoff potential begins at    8.00000 A.
  | Threshold for basis-dependent cutoff potential is   0.100000E-03
  | Found logarithmic grid data [bohr] : 0.1000E-03 0.1000E+03 0.1012E+01
  | Found data for basic radial integration grid :    36 points, outermost radius =    7.000 A
  | Found multiplier for basic radial grid :   2
  | Found angular grid specification: user-specified.
  | Specified grid contains     4 separate shells.
  | Check grid settings after all constraints further below.
  | Found free-atom valence shell :  2 s   2.000
  | Found free-atom valence shell :  2 p   4.000
  | No ionic wave fns used. Skipping ion_occ.
  | No ionic wave fns used. Skipping ion_occ.
  | Found hydrogenic basis function :  2 p   1.800
  | Found hydrogenic basis function :  3 d   7.600
  | Found hydrogenic basis function :  3 s   6.400
  | Found hydrogenic basis function :  4 f  11.600
  | Found hydrogenic basis function :  3 p   6.200
  | Found hydrogenic basis function :  3 d   5.600
  | Found hydrogenic basis function :  5 g  17.600
  | Found hydrogenic basis function :  1 s   0.750
  Species O                   : Missing cutoff potential type.
  Defaulting to exp(1/x)/(1-x)^2 type cutoff potential.
  Species O : On-site basis accuracy parameter (for Gram-Schmidt orthonormalisation) not specified.
  Using default value basis_acc =  0.1000000E-03.
  Species O                   : Using default innermost maximum threshold i_radial=  2 for radial functions.
  Species O                   : Basic radial grid will be enhanced according to radial_multiplier =   2, to contain    73 grid points.
 
  Finished reading input file 'control.in'. Consistency checks are next.
 
  Target number of points in a grid batch is not set. Defaulting to  100
  Method for grid partitioning is not set. Defaulting to parallel hash+maxmin partitioning.
  Batch size limit is not set. Defaulting to    200
  By default, will store active basis functions for each batch.
  If in need of memory, prune_basis_once .false. can be used to disable this option.
  communication_type for Hartree potential was not specified.
  Defaulting to calc_hartree .
  Pulay mixer: Number of initial linear mixing iterations not set.
  Defaulting to    0 iterations.
  Work space size for distributed Hartree potential not set.
  Defaulting to   0.200000E+03 MB.
  Algorithm-dependent basis array size parameters:
  | n_max_pulay                         :       10
  Geometry relaxation not requested: no relaxation will be performed.
  Handling of forces: Unphysical translation and rotation will be removed from forces.
  No accuracy limit for integral partition fn. given. Defaulting to 0.1000E-14.
  No threshold value for u(r) in integrations given. Defaulting to 0.1000E-05.
  No accuracy for occupation numbers given. Defaulting to 0.1000E-07.
  No threshold value for occupation numbers given. Defaulting to 0.0000E+00.
  No accuracy for fermi level given. Defaulting to 0.1000E-19.
  Maximum # of iterations to find E_F not set. Defaulting to  200.
  Will not use alltoall communication since running on < 1024 CPUs.
  Partitioning for Hartree potential was not defined. Using partition_type for integrals.
  | Reporting present value of keyword multip_moments_threshold  :       0.10000000E-09
  | This value may affect high angular momentum components of the Hartree potential in periodic systems.
  No q(lm)/r^(l+1) cutoff set for long-range Hartree potential.
  | Using default value of  0.100000E-09 .
  | Verify using the multipole_threshold keyword.
  Defaulting to new monopole extrapolation.
  Density update method: Loop over occupied states selected for charge density update.
------------------------------------------------------------


------------------------------------------------------------
          Reading geometry description geometry.in.
------------------------------------------------------------
  Input structure read successfully.
  The structure contains       16 atoms,  and a total of         51.000 electrons.

  Input geometry:
  | No unit cell requested.
  | Atomic structure:
  |       Atom                x [A]            y [A]            z [A]
  |    1: Species O             -4.053030         0.065001        -1.525160
  |    2: Species H             -4.566710         0.974813        -1.912820
  |    3: Species H             -3.067820         0.330172        -1.477310
  |    4: Species H             -4.370360        -0.049164        -0.572274
  |    5: Species O             -4.581760        -0.256435         0.939478
  |    6: Species H             -4.349860         0.471090         1.504340
  |    7: Species H             -5.393870        -0.726611         1.228070
  |    8: Species O             -3.818880         2.024990         2.187990
  |    9: Species H             -3.690880         1.961360         3.202150
  |   10: Species H             -4.546490         2.751300         2.045370
  |   11: Species O             -1.975360         2.858040         0.453140
  |   12: Species H             -1.223550         3.375850         0.786238
  |   13: Species H             -2.537520         2.567960         1.156120
  |   14: Species O             -4.066610         4.258280        -0.900064
  |   15: Species H             -3.224110         3.876870        -0.569443
  |   16: Species H             -3.737450         5.116530        -1.322720
  |

  | The smallest distance between any two atoms is         0.94570141 AA.
  |
  | The first atom of this pair is atom number                     11 .
  | The second atom of this pair is atom number                    13 .

  Structure-dependent array size parameters: 
  | Maximum number of distinct radial functions  :       18
  | Maximum number of basis functions            :      360
  | Number of Kohn-Sham states (occupied + empty):       90
------------------------------------------------------------

------------------------------------------------------------
          Preparing all fixed parts of the calculation.
------------------------------------------------------------
  Determining machine precision:
    2.225073858507201E-308
  Setting up grids for atomic and cluster calculations.

  Creating wave function, potential, and density for free atoms.

  Species: H

  List of occupied orbitals and eigenvalues:
    n    l              occ      energy [Ha]    energy [eV]
    1    0           1.0000        -0.241408        -6.5691


  Species: O

  List of occupied orbitals and eigenvalues:
    n    l              occ      energy [Ha]    energy [eV]
    1    0           2.0000       -18.944147      -515.4965
    2    0           2.0000        -0.883529       -24.0421
    2    1           4.0000        -0.330176        -8.9845

  Creating fixed part of basis set: Ionic, confined, hydrogenic.
 
  H                    hydrogenic:
 
  List of hydrogenic basis orbitals: 
    n    l      effective z      eigenvalue [eV]  inner max. [A]     outer max. [A]     outer radius [A]   
    2    0         2.100000       -14.9965           0.193241           1.317192           5.372934
    2    1         3.500000       -41.6672           0.602363           0.602363           4.056010
    1    0         0.850000        -9.8292           0.624864           0.624864           5.372934
    2    1         3.700000       -46.5653           0.573616           0.573616           3.909951
    2    0         1.200000        -4.5995           0.334977           2.228160           5.505921
    3    2         7.000000       -74.0753           0.680692           0.680692           3.769152
 
 
  O                    hydrogenic:
 
  List of hydrogenic basis orbitals: 
    n    l      effective z      eigenvalue [eV]  inner max. [A]     outer max. [A]     outer radius [A]   
    2    1         1.800000       -11.0118           1.178546           1.178546           5.432516
    3    2         7.600000       -87.3182           0.624117           0.624117           3.541422
    3    0         6.400000       -61.9209           0.061166           1.081887           4.306510
    4    3        11.600000      -114.4238           0.731621           0.731621           3.584982
    3    1         6.200000       -58.1113           0.255677           1.030255           4.306510
    3    2         5.600000       -47.4081           0.847222           0.847222           4.413102
    5    4        17.600000      -168.5799           0.749730           0.749730           3.372413
    1    0         0.750000        -7.6499           0.705275           0.705275           5.366508
 

  Adding cutoff potential to free-atom effective potential.
  Creating atomic-like basis functions for current effective potential.

  Species H                   :

  List of atomic basis orbitals and eigenvalues:
    n    l      energy [Ha]    energy [eV]    outer radius [A]
    1    0        -0.241374        -6.5681       5.372934


  Species O                   :

  List of atomic basis orbitals and eigenvalues:
    n    l      energy [Ha]    energy [eV]    outer radius [A]
    1    0       -18.944147      -515.4965       1.415745
    2    0        -0.883529       -24.0421       5.048305
    2    1        -0.330173        -8.9845       5.301302

  Assembling full basis from fixed parts.
  | Species H :   atomic orbital   1 s accepted.
  | Species H :    hydro orbital   2 s accepted.
  | Species H :    hydro orbital   1 s accepted.
  | Species H :    hydro orbital   2 s accepted.
  | Species H :    hydro orbital   2 p accepted.
  | Species H :    hydro orbital   2 p accepted.
  | Species H :    hydro orbital   3 d accepted.
  | Species O :   atomic orbital   1 s accepted.
  | Species O :    hydro orbital   3 s accepted.
  | Species O :   atomic orbital   2 s accepted.
  | Species O :    hydro orbital   1 s accepted.
  | Species O :    hydro orbital   3 p accepted.
  | Species O :   atomic orbital   2 p accepted.
  | Species O :    hydro orbital   2 p accepted.
  | Species O :    hydro orbital   3 d accepted.
  | Species O :    hydro orbital   3 d accepted.
  | Species O :    hydro orbital   4 f accepted.
  | Species O :    hydro orbital   5 g accepted.
 
  Basis size parameters after reduction:
  | Total number of radial functions:       18
  | Total number of basis functions :      360
 
  Testing on-site integration grid accuracy.
  |  Species  Function  <phi|h_atom|phi> (log., in eV)  <phi|h_atom|phi> (rad., in eV)
           1        1                 -6.5683835025                 -6.5684759159
           1        2                 13.3711789951                 13.3708738703
           1        3                 23.6590910787                 23.6532055418
           1        4                 16.2963827186                 16.1870710655 ***
           1        5                 28.7627214838                 28.7627215090
           1        6                 59.5965249172                 59.5965950857
           1        7                 60.2220506392                 60.2220503827
           2        8               -515.4964576505               -515.4964530710
           2        9                 15.3030791347                 15.3030722972
           2       10                -21.7296094581                -21.7296135470
           2       11                 14.2969371730                 14.2969701621
           2       12                 21.0679693190                 21.0679697493
           2       13                 -2.3833606469                 -2.3833613176
           2       14                 13.7067136422                 13.7066766629
           2       15                 45.8013116808                 45.8013116965
           2       16                 52.2309815402                 52.2309831494
           2       17                 85.4120732416                 85.4120732763
           2       18                142.1019167745                142.1019167817
 * Note: Onsite integrals marked "***" above are less accurate than
 * onsite_accuracy_threshold =    0.03000 eV. Usually, this is harmless.
 * When in doubt, tighten the "radial" and/or "radial_multiplier" flags to check.

  Preparing densities etc. for the partition functions (integrals / Hartree potential).

  Preparations completed.
  max(cpu_time)          :      0.168 s.
  Wall clock time (cpu1) :      0.533 s.
------------------------------------------------------------

------------------------------------------------------------
          Begin self-consistency loop: Initialization.

          Date     :  20150727, Time     :  122522.433
------------------------------------------------------------

  Initializing index lists of integration centers etc. from given atomic structure:
  | Number of centers in hartree potential         :        16
  | Number of centers in hartree multipole         :        16
  | Number of centers in electron density summation:        16
  | Number of centers in basis integrals           :        16
  | Number of centers in integrals                 :        16
  Partitioning the integration grid into batches with parallel hashing+maxmin method.
  | Number of batches:     2181
  | Maximal batch size:     199
  | Minimal batch size:      49
  | Average batch size:      95.508
  | Standard deviation of batch sizes:      28.558

  Integration load balanced across     8 MPI tasks.
  Work distribution over tasks is as follows:
  Task     0 has      26001 integration points.
  Task     1 has      26010 integration points.
  Task     2 has      26004 integration points.
  Task     3 has      26087 integration points.
  Task     4 has      26078 integration points.
  Task     5 has      26025 integration points.
  Task     6 has      26075 integration points.
  Task     7 has      26024 integration points.
  Initializing partition tables, free-atom densities, potentials, etc. across the integration grid (initialize_grid_storage).
  | Net number of integration points:   208304
  | of which are non-zero points    :   207764
  Obtaining max. number of non-zero basis functions in each batch (get_n_compute_maxes).
  | Maximal number of non-zero basis functions:      357 in task     0
  | Maximal number of non-zero basis functions:      356 in task     1
  | Maximal number of non-zero basis functions:      357 in task     2
  | Maximal number of non-zero basis functions:      357 in task     3
  | Maximal number of non-zero basis functions:      357 in task     4
  | Maximal number of non-zero basis functions:      357 in task     5
  | Maximal number of non-zero basis functions:      357 in task     6
  | Maximal number of non-zero basis functions:      356 in task     7
  Integrating Hamiltonian matrix: batch-based integration.
  Time summed over all CPUs for integration: real work        8.444 s, elapsed        8.619 s
  Integrating overlap matrix.
  Time summed over all CPUs for integration: real work        4.574 s, elapsed        4.635 s

  Updating Kohn-Sham eigenvalues, eigenvectors, occupation numbers, and Fermi level.
  Solving generalized eigenproblem
  Updating Kohn-Sham eigenvalues and eigenfunctions.
  Transforming overlap matrix and checking for singularities.
  Overlap matrix is nonsingular:
  | Lowest eigenvalue:  0.240622E-03
  Solving real generalised eigenvalue problem by standard LAPACK (fast)
  Determining occupation numbers for Kohn-Sham eigenstates.
  | Chemical potential (Fermi level) in eV                 : -.29214294E+01
  | Error in electron count due to remaining E_F inaccuracy: 0.00000000E+00
  | Maximum occupation number of highest empty state:  0.00E+00

  Writing Kohn-Sham eigenvalues.

  State    Occupation    Eigenvalue [Ha]    Eigenvalue [eV]
      1       2.00000         -19.064913         -518.78267
      2       2.00000         -19.059286         -518.62956
      3       2.00000         -19.056832         -518.56278
      4       2.00000         -19.040142         -518.10861
      5       2.00000         -19.035982         -517.99543
      6       2.00000          -1.124876          -30.60944
      7       2.00000          -1.109470          -30.19023
      8       2.00000          -1.104562          -30.05667
      9       2.00000          -1.083012          -29.47025
     10       2.00000          -1.069140          -29.09278
     11       2.00000          -0.655628          -17.84055
     12       2.00000          -0.653694          -17.78791
     13       2.00000          -0.639730          -17.40795
     14       2.00000          -0.606653          -16.50787
     15       2.00000          -0.602279          -16.38885
     16       2.00000          -0.597477          -16.25819
     17       2.00000          -0.519103          -14.12550
     18       2.00000          -0.515734          -14.03384
     19       2.00000          -0.504169          -13.71913
     20       2.00000          -0.495471          -13.48244
     21       2.00000          -0.484026          -13.17103
     22       2.00000          -0.446741          -12.15643
     23       2.00000          -0.444005          -12.08200
     24       2.00000          -0.432205          -11.76090
     25       2.00000          -0.426684          -11.61067
     26       1.00000          -0.107361           -2.92143
     27       0.00000          -0.082783           -2.25263
     28       0.00000          -0.063282           -1.72199
     29       0.00000          -0.044443           -1.20937
     30       0.00000          -0.042647           -1.16049
     31       0.00000          -0.024531           -0.66752
     32       0.00000          -0.014806           -0.40288
     33       0.00000           0.034907            0.94987
     34       0.00000           0.038561            1.04929
     35       0.00000           0.049120            1.33662
     36       0.00000           0.059696            1.62441
     37       0.00000           0.063965            1.74058
     38       0.00000           0.070738            1.92489
     39       0.00000           0.088519            2.40871
     40       0.00000           0.094123            2.56121
     41       0.00000           0.098010            2.66699
     42       0.00000           0.103023            2.80339
     43       0.00000           0.110463            3.00586
     44       0.00000           0.120061            3.26703
     45       0.00000           0.127150            3.45994
     46       0.00000           0.130819            3.55978
     47       0.00000           0.140610            3.82621
     48       0.00000           0.143453            3.90355
     49       0.00000           0.158468            4.31214
     50       0.00000           0.164914            4.48753
     51       0.00000           0.171765            4.67395
     52       0.00000           0.173593            4.72369
     53       0.00000           0.214655            5.84106
     54       0.00000           0.222216            6.04679
     55       0.00000           0.235548            6.40959
     56       0.00000           0.241610            6.57455
     57       0.00000           0.259677            7.06617
     58       0.00000           0.268651            7.31037
     59       0.00000           0.280059            7.62079
     60       0.00000           0.300345            8.17279
     61       0.00000           0.325811            8.86576
     62       0.00000           0.327289            8.90599
     63       0.00000           0.338430            9.20916
     64       0.00000           0.341983            9.30584
     65       0.00000           0.369803           10.06284
     66       0.00000           0.378483           10.29905
     67       0.00000           0.385512           10.49030
     68       0.00000           0.387383           10.54124
     69       0.00000           0.396474           10.78862
     70       0.00000           0.411525           11.19816
     71       0.00000           0.419228           11.40778
     72       0.00000           0.438059           11.92020
     73       0.00000           0.447776           12.18459
     74       0.00000           0.462401           12.58256
     75       0.00000           0.465648           12.67092
     76       0.00000           0.482062           13.11757
     77       0.00000           0.507705           13.81537
     78       0.00000           0.522956           14.23036
     79       0.00000           0.538408           14.65083
     80       0.00000           0.552087           15.02304
     81       0.00000           0.572219           15.57086
     82       0.00000           0.595783           16.21209
     83       0.00000           0.619003           16.84392
     84       0.00000           0.646522           17.59276
     85       0.00000           0.657719           17.89743
     86       0.00000           0.697034           18.96727
     87       0.00000           0.728385           19.82037
     88       0.00000           0.754028           20.51816
     89       0.00000           0.766723           20.86359
     90       0.00000           0.791413           21.53544

  Highest occupied state (VBM) at     -2.92142941 eV
  | Occupation number:      1.00000000

  Lowest unoccupied state (CBM) at    -2.92142941 eV
  | Occupation number:      1.00000000

  Overall HOMO-LUMO gap:      0.00000000 eV.
  Calculating total energy contributions from superposition of free atom densities.

  Total energy components:
  | Sum of eigenvalues            :        -217.65099147 Ha       -5922.58481556 eV
  | XC energy correction          :         -45.93487091 Ha       -1249.95143429 eV
  | XC potential correction       :          58.70746356 Ha        1597.51136387 eV
  | Free-atom electrostatic energy:        -178.65533008 Ha       -4861.45887989 eV
  | Hartree energy correction     :           0.00000000 Ha           0.00000000 eV
  | van der Waals energy corr.    :           0.00000000 Ha           0.00000000 eV
  | Entropy correction            :          -0.00010367 Ha          -0.00282095 eV
  | ---------------------------
  | Total energy                  :        -383.53372890 Ha      -10436.48376587 eV
  | Total energy, T -> 0          :        -383.53383257 Ha      -10436.48658682 eV  <-- do not rely on this value for anything but (periodic) metals
  | Electronic free energy        :        -383.53393624 Ha      -10436.48940777 eV

  Derived energy quantities:
  | Kinetic energy                :         379.85239908 Ha       10336.30968464 eV
  | Electrostatic energy          :        -717.45125707 Ha      -19522.84201622 eV
  | Energy correction for multipole
  | error in Hartree potential    :           0.00000000 Ha           0.00000000 eV
  | Sum of eigenvalues per atom                           :        -370.16155097 eV
  | Total energy (T->0) per atom                          :        -652.28041168 eV  <-- do not rely on this value for anything but (periodic) metals
  | Electronic free energy per atom                       :        -652.28058799 eV
  Initialize hartree_potential_storage
  Max. number of atoms included in rho_multipole:           16

  End scf initialization - timings             :  max(cpu_time)    wall_clock(cpu1)
  | Time for scf. initialization               :        2.276 s           2.275 s
  | Boundary condition initialization          :        0.000 s           0.000 s
  | Integration                                :        1.660 s           1.660 s
  | Solution of K.-S. eqns.                    :        0.214 s           0.213 s
  | Grid partitioning                          :        0.164 s           0.164 s
  | Preloading free-atom quantities on grid    :        0.014 s           0.013 s
  | Free-atom superposition energy             :        0.072 s           0.073 s
  | Total energy evaluation                    :        0.001 s           0.000 s
------------------------------------------------------------

------------------------------------------------------------
          Begin self-consistency iteration #    1

  Date     :  20150727, Time     :  122524.709
------------------------------------------------------------
  Evaluating new KS density.
  Integration grid: deviation in total charge (<rho> - N_e) =   0.000000E+00
  Pulay mixing of updated and previous charge densities.

  Evaluating partitioned Hartree potential by multipole expansion.
  | Analytical far-field extrapolation by fixed multipoles:
  | Hartree multipole sum: apparent total charge =  -0.141236E-05
  Summing up the Hartree potential.
  Time summed over all CPUs for potential: real work        2.895 s, elapsed        2.902 s
  | RMS charge density error from multipole expansion :   0.166651E-02

  Integrating Hamiltonian matrix: batch-based integration.
  Time summed over all CPUs for integration: real work        8.447 s, elapsed        8.608 s

  Updating Kohn-Sham eigenvalues, eigenvectors, occupation numbers, and Fermi level.
  Solving generalized eigenproblem
  Updating Kohn-Sham eigenvalues and eigenfunctions.
  Solving real generalised eigenvalue problem by standard LAPACK (fast)
  Determining occupation numbers for Kohn-Sham eigenstates.
  | Chemical potential (Fermi level) in eV                 : -.26984949E+01
  | Error in electron count due to remaining E_F inaccuracy: 0.17053026E-12
  | Maximum occupation number of highest empty state:  0.00E+00

  Writing Kohn-Sham eigenvalues.

  State    Occupation    Eigenvalue [Ha]    Eigenvalue [eV]
      1       2.00000         -19.012503         -517.35652
      2       2.00000         -18.984822         -516.60330
      3       2.00000         -18.974260         -516.31589
      4       2.00000         -18.972479         -516.26743
      5       2.00000         -18.956845         -515.84201
      6       2.00000          -1.098230          -29.88437
      7       2.00000          -1.070622          -29.13310
      8       2.00000          -1.066984          -29.03411
      9       2.00000          -1.039454          -28.28497
     10       2.00000          -1.037403          -28.22917
     11       2.00000          -0.624035          -16.98087
     12       2.00000          -0.617726          -16.80919
     13       2.00000          -0.616485          -16.77540
     14       2.00000          -0.581342          -15.81913
     15       2.00000          -0.572260          -15.57199
     16       2.00000          -0.568070          -15.45796
     17       2.00000          -0.487057          -13.25350
     18       2.00000          -0.478077          -13.00913
     19       2.00000          -0.466640          -12.69793
     20       2.00000          -0.458562          -12.47812
     21       2.00000          -0.452057          -12.30110
     22       2.00000          -0.409721          -11.14907
     23       2.00000          -0.401960          -10.93788
     24       2.00000          -0.396999          -10.80290
     25       2.00000          -0.381240          -10.37407
     26       1.00000          -0.099168           -2.69849
     27       0.00000          -0.075533           -2.05535
     28       0.00000          -0.053968           -1.46854
     29       0.00000          -0.036540           -0.99429
     30       0.00000          -0.035003           -0.95249
     31       0.00000          -0.016759           -0.45604
     32       0.00000          -0.007819           -0.21275
     33       0.00000           0.042603            1.15928
     34       0.00000           0.046328            1.26065
     35       0.00000           0.057366            1.56102
     36       0.00000           0.066763            1.81672
     37       0.00000           0.072409            1.97034
     38       0.00000           0.075591            2.05694
     39       0.00000           0.095500            2.59870
     40       0.00000           0.101247            2.75508
     41       0.00000           0.107342            2.92091
     42       0.00000           0.110834            3.01593
     43       0.00000           0.118152            3.21508
     44       0.00000           0.130763            3.55823
     45       0.00000           0.137986            3.75480
     46       0.00000           0.141905            3.86142
     47       0.00000           0.152035            4.13708
     48       0.00000           0.157279            4.27979
     49       0.00000           0.168376            4.58174
     50       0.00000           0.178528            4.85799
     51       0.00000           0.182161            4.95686
     52       0.00000           0.184946            5.03265
     53       0.00000           0.221792            6.03526
     54       0.00000           0.230915            6.28353
     55       0.00000           0.242904            6.60976
     56       0.00000           0.248964            6.77466
     57       0.00000           0.267297            7.27353
     58       0.00000           0.275320            7.49185
     59       0.00000           0.287147            7.81368
     60       0.00000           0.309277            8.41587
     61       0.00000           0.332495            9.04765
     62       0.00000           0.335329            9.12475
     63       0.00000           0.347370            9.45242
     64       0.00000           0.349657            9.51466
     65       0.00000           0.378949           10.31174
     66       0.00000           0.386216           10.50946
     67       0.00000           0.393864           10.71758
     68       0.00000           0.395500           10.76211
     69       0.00000           0.406202           11.05333
     70       0.00000           0.418852           11.39754
     71       0.00000           0.428753           11.66697
     72       0.00000           0.446296           12.14434
     73       0.00000           0.455548           12.39610
     74       0.00000           0.471840           12.83942
     75       0.00000           0.474924           12.92334
     76       0.00000           0.490486           13.34681
     77       0.00000           0.519266           14.12995
     78       0.00000           0.534349           14.54037
     79       0.00000           0.548289           14.91969
     80       0.00000           0.562513           15.30675
     81       0.00000           0.581314           15.81837
     82       0.00000           0.607846           16.54033
     83       0.00000           0.631110           17.17337
     84       0.00000           0.660128           17.96298
     85       0.00000           0.669500           18.21802
     86       0.00000           0.708331           19.27468
     87       0.00000           0.739545           20.12405
     88       0.00000           0.762620           20.75194
     89       0.00000           0.777524           21.15751
     90       0.00000           0.801785           21.81769

  Highest occupied state (VBM) at     -2.69849494 eV
  | Occupation number:      1.00000000

  Lowest unoccupied state (CBM) at    -2.05534847 eV
  | Occupation number:      0.00000000

  Overall HOMO-LUMO gap:      0.64314647 eV.

  Total energy components:
  | Sum of eigenvalues            :        -215.55083554 Ha       -5865.43666514 eV
  | XC energy correction          :         -46.15656541 Ha       -1255.98404844 eV
  | XC potential correction       :          58.99695671 Ha        1605.38887344 eV
  | Free-atom electrostatic energy:        -178.65533008 Ha       -4861.45887989 eV
  | Hartree energy correction     :          -2.04472973 Ha         -55.63992685 eV
  | van der Waals energy corr.    :           0.00000000 Ha           0.00000000 eV
  | Entropy correction            :          -0.00010367 Ha          -0.00282095 eV
  | ---------------------------
  | Total energy                  :        -383.41050404 Ha      -10433.13064688 eV
  | Total energy, T -> 0          :        -383.41060771 Ha      -10433.13346783 eV  <-- do not rely on this value for anything but (periodic) metals
  | Electronic free energy        :        -383.41071138 Ha      -10433.13628878 eV

  Derived energy quantities:
  | Kinetic energy                :         381.20123781 Ha       10373.01345397 eV
  | Electrostatic energy          :        -718.45517645 Ha      -19550.16005242 eV
  | Energy correction for multipole
  | error in Hartree potential    :           0.00050943 Ha           0.01386228 eV
  | Sum of eigenvalues per atom                           :        -366.58979157 eV
  | Total energy (T->0) per atom                          :        -652.07084174 eV  <-- do not rely on this value for anything but (periodic) metals
  | Electronic free energy per atom                       :        -652.07101805 eV

  Self-consistency convergence accuracy:
  | Change of charge density      : 0.6369E+00
  | Change of sum of eigenvalues  : 0.5715E+02 eV
  | Change of total energy        : 0.3353E+01 eV

  End self-consistency iteration #     1       :  max(cpu_time)    wall_clock(cpu1)
  | Time for this iteration                    :        2.202 s           2.201 s
  | Charge density update                      :        0.694 s           0.694 s
  | Density mixing                             :        0.004 s           0.003 s
  | Hartree multipole update                   :        0.005 s           0.005 s
  | Hartree multipole summation                :        0.364 s           0.364 s
  | Integration                                :        1.077 s           1.078 s
  | Solution of K.-S. eqns.                    :        0.057 s           0.056 s
  | Total energy evaluation                    :        0.001 s           0.000 s
------------------------------------------------------------

------------------------------------------------------------
          Begin self-consistency iteration #    2

  Date     :  20150727, Time     :  122526.910
------------------------------------------------------------
  Evaluating new KS density.
  Integration grid: deviation in total charge (<rho> - N_e) =   1.776357E-13
  Pulay mixing of updated and previous charge densities.

  Evaluating partitioned Hartree potential by multipole expansion.
  | Analytical far-field extrapolation by fixed multipoles:
  | Hartree multipole sum: apparent total charge =  -0.467764E-05
  Summing up the Hartree potential.
  Time summed over all CPUs for potential: real work        2.894 s, elapsed        2.902 s
  | RMS charge density error from multipole expansion :   0.676705E-02

  Integrating Hamiltonian matrix: batch-based integration.
  Time summed over all CPUs for integration: real work        8.436 s, elapsed        8.572 s

  Updating Kohn-Sham eigenvalues, eigenvectors, occupation numbers, and Fermi level.
  Solving generalized eigenproblem
  Updating Kohn-Sham eigenvalues and eigenfunctions.
  Solving real generalised eigenvalue problem by standard LAPACK (fast)
  Determining occupation numbers for Kohn-Sham eigenstates.
  | Chemical potential (Fermi level) in eV                 : -.21749745E+01
  | Error in electron count due to remaining E_F inaccuracy: -.53731242E-10
  | Maximum occupation number of highest empty state:  0.00E+00

  Highest occupied state (VBM) at     -7.36889707 eV
  | Occupation number:      2.00000000

  Lowest unoccupied state (CBM) at    -2.17497451 eV
  | Occupation number:      1.00000000

  Overall HOMO-LUMO gap:      5.19392257 eV.

  Total energy components:
  | Sum of eigenvalues            :        -210.51124928 Ha       -5728.30254585 eV
  | XC energy correction          :         -46.71544158 Ha       -1271.19184288 eV
  | XC potential correction       :          59.72520129 Ha        1625.20541669 eV
  | Free-atom electrostatic energy:        -178.65533008 Ha       -4861.45887989 eV
  | Hartree energy correction     :          -7.11309775 Ha        -193.55723795 eV
  | van der Waals energy corr.    :           0.00000000 Ha           0.00000000 eV
  | Entropy correction            :          -0.00010367 Ha          -0.00282095 eV
  | ---------------------------
  | Total energy                  :        -383.26991741 Ha      -10429.30508988 eV
  | Total energy, T -> 0          :        -383.27002108 Ha      -10429.30791082 eV  <-- do not rely on this value for anything but (periodic) metals
  | Electronic free energy        :        -383.27012474 Ha      -10429.31073177 eV

  Derived energy quantities:
  | Kinetic energy                :         384.00501686 Ha       10449.30816372 eV
  | Electrostatic energy          :        -720.55949269 Ha      -19607.42141072 eV
  | Energy correction for multipole
  | error in Hartree potential    :           0.00111615 Ha           0.03037186 eV
  | Sum of eigenvalues per atom                           :        -358.01890912 eV
  | Total energy (T->0) per atom                          :        -651.83174443 eV  <-- do not rely on this value for anything but (periodic) metals
  | Electronic free energy per atom                       :        -651.83192074 eV

  Self-consistency convergence accuracy:
  | Change of charge density      : 0.4840E+00
  | Change of sum of eigenvalues  : 0.1371E+03 eV
  | Change of total energy        : 0.3826E+01 eV

  End self-consistency iteration #     2       :  max(cpu_time)    wall_clock(cpu1)
  | Time for this iteration                    :        2.192 s           2.192 s
  | Charge density update                      :        0.687 s           0.687 s
  | Density mixing                             :        0.006 s           0.005 s
  | Hartree multipole update                   :        0.005 s           0.005 s
  | Hartree multipole summation                :        0.364 s           0.364 s
  | Integration                                :        1.073 s           1.073 s
  | Solution of K.-S. eqns.                    :        0.057 s           0.057 s
  | Total energy evaluation                    :        0.000 s           0.000 s
------------------------------------------------------------

------------------------------------------------------------
          Begin self-consistency iteration #    3

  Date     :  20150727, Time     :  122529.102
------------------------------------------------------------
  Evaluating new KS density.
  Integration grid: deviation in total charge (<rho> - N_e) =  -5.371703E-11
  Pulay mixing of updated and previous charge densities.

  Evaluating partitioned Hartree potential by multipole expansion.
  | Analytical far-field extrapolation by fixed multipoles:
  | Hartree multipole sum: apparent total charge =  -0.539010E-05
  Summing up the Hartree potential.
  Time summed over all CPUs for potential: real work        2.894 s, elapsed        2.902 s
  | RMS charge density error from multipole expansion :   0.137028E-01

  Integrating Hamiltonian matrix: batch-based integration.
  Time summed over all CPUs for integration: real work        8.429 s, elapsed        8.564 s

  Updating Kohn-Sham eigenvalues, eigenvectors, occupation numbers, and Fermi level.
  Solving generalized eigenproblem
  Updating Kohn-Sham eigenvalues and eigenfunctions.
  Solving real generalised eigenvalue problem by standard LAPACK (fast)
  Determining occupation numbers for Kohn-Sham eigenstates.
  | Chemical potential (Fermi level) in eV                 : -.22255134E+01
  | Error in electron count due to remaining E_F inaccuracy: 0.21316282E-12
  | Maximum occupation number of highest empty state:  0.00E+00

  Highest occupied state (VBM) at     -2.22551340 eV
  | Occupation number:      1.00000000

  Lowest unoccupied state (CBM) at    -1.59325847 eV
  | Occupation number:      0.00000000

  Overall HOMO-LUMO gap:      0.63225493 eV.

  Total energy components:
  | Sum of eigenvalues            :        -210.88274423 Ha       -5738.41143779 eV
  | XC energy correction          :         -46.69995721 Ha       -1270.77049190 eV
  | XC potential correction       :          59.69632599 Ha        1624.41967967 eV
  | Free-atom electrostatic energy:        -178.65533008 Ha       -4861.45887989 eV
  | Hartree energy correction     :          -6.72628735 Ha        -183.03159143 eV
  | van der Waals energy corr.    :           0.00000000 Ha           0.00000000 eV
  | Entropy correction            :          -0.00010367 Ha          -0.00282095 eV
  | ---------------------------
  | Total energy                  :        -383.26799290 Ha      -10429.25272134 eV
  | Total energy, T -> 0          :        -383.26809657 Ha      -10429.25554229 eV  <-- do not rely on this value for anything but (periodic) metals
  | Electronic free energy        :        -383.26820024 Ha      -10429.25836323 eV

  Derived energy quantities:
  | Kinetic energy                :         382.17333896 Ha       10399.46567201 eV
  | Electrostatic energy          :        -718.74137464 Ha      -19557.94790145 eV
  | Energy correction for multipole
  | error in Hartree potential    :          -0.00254591 Ha          -0.06927776 eV
  | Sum of eigenvalues per atom                           :        -358.65071486 eV
  | Total energy (T->0) per atom                          :        -651.82847139 eV  <-- do not rely on this value for anything but (periodic) metals
  | Electronic free energy per atom                       :        -651.82864770 eV

  Self-consistency convergence accuracy:
  | Change of charge density      : 0.2366E+00
  | Change of sum of eigenvalues  : -.1011E+02 eV
  | Change of total energy        : 0.5237E-01 eV

  End self-consistency iteration #     3       :  max(cpu_time)    wall_clock(cpu1)
  | Time for this iteration                    :        2.190 s           2.190 s
  | Charge density update                      :        0.683 s           0.683 s
  | Density mixing                             :        0.008 s           0.007 s
  | Hartree multipole update                   :        0.005 s           0.005 s
  | Hartree multipole summation                :        0.363 s           0.363 s
  | Integration                                :        1.073 s           1.072 s
  | Solution of K.-S. eqns.                    :        0.057 s           0.058 s
  | Total energy evaluation                    :        0.001 s           0.000 s
------------------------------------------------------------

------------------------------------------------------------
          Begin self-consistency iteration #    4

  Date     :  20150727, Time     :  122531.292
------------------------------------------------------------
  Evaluating new KS density.
  Integration grid: deviation in total charge (<rho> - N_e) =   2.415845E-13
  Pulay mixing of updated and previous charge densities.

  Evaluating partitioned Hartree potential by multipole expansion.
  | Analytical far-field extrapolation by fixed multipoles:
  | Hartree multipole sum: apparent total charge =  -0.646636E-05
  Summing up the Hartree potential.
  Time summed over all CPUs for potential: real work        2.894 s, elapsed        2.901 s
  | RMS charge density error from multipole expansion :   0.174043E-01

  Integrating Hamiltonian matrix: batch-based integration.
  Time summed over all CPUs for integration: real work        8.417 s, elapsed        8.589 s

  Updating Kohn-Sham eigenvalues, eigenvectors, occupation numbers, and Fermi level.
  Solving generalized eigenproblem
  Updating Kohn-Sham eigenvalues and eigenfunctions.
  Solving real generalised eigenvalue problem by standard LAPACK (fast)
  Determining occupation numbers for Kohn-Sham eigenstates.
  | Chemical potential (Fermi level) in eV                 : -.20769063E+01
  | Error in electron count due to remaining E_F inaccuracy: 0.29842795E-11
  | Maximum occupation number of highest empty state:  0.00E+00

  Highest occupied state (VBM) at     -2.07690632 eV
  | Occupation number:      1.00000000

  Lowest unoccupied state (CBM) at    -1.48648308 eV
  | Occupation number:      0.00000000

  Overall HOMO-LUMO gap:      0.59042324 eV.

  Total energy components:
  | Sum of eigenvalues            :        -209.69011985 Ha       -5705.95847716 eV
  | XC energy correction          :         -46.85735291 Ha       -1275.05344676 eV
  | XC potential correction       :          59.89864940 Ha        1629.92517973 eV
  | Free-atom electrostatic energy:        -178.65533008 Ha       -4861.45887989 eV
  | Hartree energy correction     :          -7.95749019 Ha        -216.53432526 eV
  | van der Waals energy corr.    :           0.00000000 Ha           0.00000000 eV
  | Entropy correction            :          -0.00010367 Ha          -0.00282095 eV
  | ---------------------------
  | Total energy                  :        -383.26164365 Ha      -10429.07994935 eV
  | Total energy, T -> 0          :        -383.26174731 Ha      -10429.08277030 eV  <-- do not rely on this value for anything but (periodic) metals
  | Electronic free energy        :        -383.26185098 Ha      -10429.08559125 eV

  Derived energy quantities:
  | Kinetic energy                :         382.26508579 Ha       10401.96223024 eV
  | Electrostatic energy          :        -718.66937652 Ha      -19555.98873284 eV
  | Energy correction for multipole
  | error in Hartree potential    :          -0.00367183 Ha          -0.09991564 eV
  | Sum of eigenvalues per atom                           :        -356.62240482 eV
  | Total energy (T->0) per atom                          :        -651.81767314 eV  <-- do not rely on this value for anything but (periodic) metals
  | Electronic free energy per atom                       :        -651.81784945 eV

  Self-consistency convergence accuracy:
  | Change of charge density      : 0.1128E+00
  | Change of sum of eigenvalues  : 0.3245E+02 eV
  | Change of total energy        : 0.1728E+00 eV

  End self-consistency iteration #     4       :  max(cpu_time)    wall_clock(cpu1)
  | Time for this iteration                    :        2.193 s           2.193 s
  | Charge density update                      :        0.683 s           0.683 s
  | Density mixing                             :        0.009 s           0.009 s
  | Hartree multipole update                   :        0.005 s           0.005 s
  | Hartree multipole summation                :        0.363 s           0.363 s
  | Integration                                :        1.075 s           1.076 s
  | Solution of K.-S. eqns.                    :        0.056 s           0.056 s
  | Total energy evaluation                    :        0.000 s           0.001 s
------------------------------------------------------------

------------------------------------------------------------
          Begin self-consistency iteration #    5

  Date     :  20150727, Time     :  122533.485
------------------------------------------------------------
  Evaluating new KS density.
  Integration grid: deviation in total charge (<rho> - N_e) =   2.991385E-12
  Pulay mixing of updated and previous charge densities.

  Evaluating partitioned Hartree potential by multipole expansion.
  | Analytical far-field extrapolation by fixed multipoles:
  | Hartree multipole sum: apparent total charge =  -0.660020E-05
  Summing up the Hartree potential.
  Time summed over all CPUs for potential: real work        2.894 s, elapsed        2.902 s
  | RMS charge density error from multipole expansion :   0.179273E-01

  Integrating Hamiltonian matrix: batch-based integration.
  Time summed over all CPUs for integration: real work        8.406 s, elapsed        8.588 s

  Updating Kohn-Sham eigenvalues, eigenvectors, occupation numbers, and Fermi level.
  Solving generalized eigenproblem
  Updating Kohn-Sham eigenvalues and eigenfunctions.
  Solving real generalised eigenvalue problem by standard LAPACK (fast)
  Determining occupation numbers for Kohn-Sham eigenstates.
  | Chemical potential (Fermi level) in eV                 : -.20282160E+01
  | Error in electron count due to remaining E_F inaccuracy: 0.16814283E-09
  | Maximum occupation number of highest empty state:  0.00E+00

  Highest occupied state (VBM) at     -2.02821602 eV
  | Occupation number:      1.00000000

  Lowest unoccupied state (CBM) at    -1.47552575 eV
  | Occupation number:      0.00000000

  Overall HOMO-LUMO gap:      0.55269027 eV.

  Total energy components:
  | Sum of eigenvalues            :        -209.54467881 Ha       -5702.00082516 eV
  | XC energy correction          :         -46.87763349 Ha       -1275.60530933 eV
  | XC potential correction       :          59.92462916 Ha        1630.63212498 eV
  | Free-atom electrostatic energy:        -178.65533008 Ha       -4861.45887989 eV
  | Hartree energy correction     :          -8.10849150 Ha        -220.64327979 eV
  | van der Waals energy corr.    :           0.00000000 Ha           0.00000000 eV
  | Entropy correction            :          -0.00010367 Ha          -0.00282095 eV
  | ---------------------------
  | Total energy                  :        -383.26150473 Ha      -10429.07616918 eV
  | Total energy, T -> 0          :        -383.26160840 Ha      -10429.07899013 eV  <-- do not rely on this value for anything but (periodic) metals
  | Electronic free energy        :        -383.26171206 Ha      -10429.08181108 eV

  Derived energy quantities:
  | Kinetic energy                :         382.31008572 Ha       10403.18674072 eV
  | Electrostatic energy          :        -718.69395696 Ha      -19556.65760058 eV
  | Energy correction for multipole
  | error in Hartree potential    :          -0.00382842 Ha          -0.10417663 eV
  | Sum of eigenvalues per atom                           :        -356.37505157 eV
  | Total energy (T->0) per atom                          :        -651.81743688 eV  <-- do not rely on this value for anything but (periodic) metals
  | Electronic free energy per atom                       :        -651.81761319 eV

  Self-consistency convergence accuracy:
  | Change of charge density      : 0.2284E-01
  | Change of sum of eigenvalues  : 0.3958E+01 eV
  | Change of total energy        : 0.3780E-02 eV

  End self-consistency iteration #     5       :  max(cpu_time)    wall_clock(cpu1)
  | Time for this iteration                    :        2.195 s           2.194 s
  | Charge density update                      :        0.683 s           0.684 s
  | Density mixing                             :        0.010 s           0.010 s
  | Hartree multipole update                   :        0.005 s           0.005 s
  | Hartree multipole summation                :        0.363 s           0.363 s
  | Integration                                :        1.075 s           1.075 s
  | Solution of K.-S. eqns.                    :        0.057 s           0.057 s
  | Total energy evaluation                    :        0.001 s           0.000 s
------------------------------------------------------------

------------------------------------------------------------
          Begin self-consistency iteration #    6

  Date     :  20150727, Time     :  122535.680
------------------------------------------------------------
  Evaluating new KS density.
  Integration grid: deviation in total charge (<rho> - N_e) =   1.681997E-10
  Pulay mixing of updated and previous charge densities.

  Evaluating partitioned Hartree potential by multipole expansion.
  | Analytical far-field extrapolation by fixed multipoles:
  | Hartree multipole sum: apparent total charge =  -0.657868E-05
  Summing up the Hartree potential.
  Time summed over all CPUs for potential: real work        2.894 s, elapsed        2.901 s
  | RMS charge density error from multipole expansion :   0.180142E-01

  Integrating Hamiltonian matrix: batch-based integration.
  Time summed over all CPUs for integration: real work        8.411 s, elapsed        8.590 s

  Updating Kohn-Sham eigenvalues, eigenvectors, occupation numbers, and Fermi level.
  Solving generalized eigenproblem
  Updating Kohn-Sham eigenvalues and eigenfunctions.
  Solving real generalised eigenvalue problem by standard LAPACK (fast)
  Determining occupation numbers for Kohn-Sham eigenstates.
  | Chemical potential (Fermi level) in eV                 : -.20429710E+01
  | Error in electron count due to remaining E_F inaccuracy: 0.00000000E+00
  | Maximum occupation number of highest empty state:  0.00E+00

  Highest occupied state (VBM) at     -2.04297103 eV
  | Occupation number:      1.00000000

  Lowest unoccupied state (CBM) at    -2.04297103 eV
  | Occupation number:      1.00000000

  Overall HOMO-LUMO gap:      0.00000000 eV.

  Total energy components:
  | Sum of eigenvalues            :        -209.63942278 Ha       -5704.57893969 eV
  | XC energy correction          :         -46.86821653 Ha       -1275.34906091 eV
  | XC potential correction       :          59.91196439 Ha        1630.28749930 eV
  | Free-atom electrostatic energy:        -178.65533008 Ha       -4861.45887989 eV
  | Hartree energy correction     :          -8.01037956 Ha        -217.97351809 eV
  | van der Waals energy corr.    :           0.00000000 Ha           0.00000000 eV
  | Entropy correction            :          -0.00010367 Ha          -0.00282095 eV
  | ---------------------------
  | Total energy                  :        -383.26138456 Ha      -10429.07289929 eV
  | Total energy, T -> 0          :        -383.26148823 Ha      -10429.07572023 eV  <-- do not rely on this value for anything but (periodic) metals
  | Electronic free energy        :        -383.26159190 Ha      -10429.07854118 eV

  Derived energy quantities:
  | Kinetic energy                :         382.28027232 Ha       10402.37547696 eV
  | Electrostatic energy          :        -718.67344035 Ha      -19556.09931533 eV
  | Energy correction for multipole
  | error in Hartree potential    :          -0.00395345 Ha          -0.10757894 eV
  | Sum of eigenvalues per atom                           :        -356.53618373 eV
  | Total energy (T->0) per atom                          :        -651.81723251 eV  <-- do not rely on this value for anything but (periodic) metals
  | Electronic free energy per atom                       :        -651.81740882 eV

  Self-consistency convergence accuracy:
  | Change of charge density      : 0.1431E-01
  | Change of sum of eigenvalues  : -.2578E+01 eV
  | Change of total energy        : 0.3270E-02 eV

  End self-consistency iteration #     6       :  max(cpu_time)    wall_clock(cpu1)
  | Time for this iteration                    :        2.196 s           2.196 s
  | Charge density update                      :        0.683 s           0.683 s
  | Density mixing                             :        0.012 s           0.011 s
  | Hartree multipole update                   :        0.005 s           0.004 s
  | Hartree multipole summation                :        0.363 s           0.363 s
  | Integration                                :        1.076 s           1.075 s
  | Solution of K.-S. eqns.                    :        0.057 s           0.057 s
  | Total energy evaluation                    :        0.000 s           0.000 s
------------------------------------------------------------

------------------------------------------------------------
          Begin self-consistency iteration #    7

  Date     :  20150727, Time     :  122537.876
------------------------------------------------------------
  Evaluating new KS density.
  Integration grid: deviation in total charge (<rho> - N_e) =   7.105427E-15
  Pulay mixing of updated and previous charge densities.

  Evaluating partitioned Hartree potential by multipole expansion.
  | Analytical far-field extrapolation by fixed multipoles:
  | Hartree multipole sum: apparent total charge =  -0.656733E-05
  Summing up the Hartree potential.
  Time summed over all CPUs for potential: real work        2.894 s, elapsed        2.901 s
  | RMS charge density error from multipole expansion :   0.179806E-01

  Integrating Hamiltonian matrix: batch-based integration.
  Time summed over all CPUs for integration: real work        8.411 s, elapsed        8.566 s

  Updating Kohn-Sham eigenvalues, eigenvectors, occupation numbers, and Fermi level.
  Solving generalized eigenproblem
  Updating Kohn-Sham eigenvalues and eigenfunctions.
  Solving real generalised eigenvalue problem by standard LAPACK (fast)
  Determining occupation numbers for Kohn-Sham eigenstates.
  | Chemical potential (Fermi level) in eV                 : -.20424901E+01
  | Error in electron count due to remaining E_F inaccuracy: 0.55052851E-10
  | Maximum occupation number of highest empty state:  0.00E+00

  Highest occupied state (VBM) at     -2.04249013 eV
  | Occupation number:      1.00000000

  Lowest unoccupied state (CBM) at    -1.47961884 eV
  | Occupation number:      0.00000000

  Overall HOMO-LUMO gap:      0.56287129 eV.

  Total energy components:
  | Sum of eigenvalues            :        -209.66483422 Ha       -5705.27042004 eV
  | XC energy correction          :         -46.86544134 Ha       -1275.27354416 eV
  | XC potential correction       :          59.90827944 Ha        1630.18722658 eV
  | Free-atom electrostatic energy:        -178.65533008 Ha       -4861.45887989 eV
  | Hartree energy correction     :          -7.98403027 Ha        -217.25651747 eV
  | van der Waals energy corr.    :           0.00000000 Ha           0.00000000 eV
  | Entropy correction            :          -0.00010367 Ha          -0.00282095 eV
  | ---------------------------
  | Total energy                  :        -383.26135647 Ha      -10429.07213498 eV
  | Total energy, T -> 0          :        -383.26146014 Ha      -10429.07495593 eV  <-- do not rely on this value for anything but (periodic) metals
  | Electronic free energy        :        -383.26156381 Ha      -10429.07777688 eV

  Derived energy quantities:
  | Kinetic energy                :         382.29892231 Ha       10402.88296888 eV
  | Electrostatic energy          :        -718.69483744 Ha      -19556.68155970 eV
  | Energy correction for multipole
  | error in Hartree potential    :          -0.00395958 Ha          -0.10774556 eV
  | Sum of eigenvalues per atom                           :        -356.57940125 eV
  | Total energy (T->0) per atom                          :        -651.81718475 eV  <-- do not rely on this value for anything but (periodic) metals
  | Electronic free energy per atom                       :        -651.81736105 eV

  Self-consistency convergence accuracy:
  | Change of charge density      : 0.7158E-02
  | Change of sum of eigenvalues  : -.6915E+00 eV
  | Change of total energy        : 0.7643E-03 eV

  End self-consistency iteration #     7       :  max(cpu_time)    wall_clock(cpu1)
  | Time for this iteration                    :        2.193 s           2.194 s
  | Charge density update                      :        0.682 s           0.683 s
  | Density mixing                             :        0.012 s           0.013 s
  | Hartree multipole update                   :        0.004 s           0.005 s
  | Hartree multipole summation                :        0.364 s           0.363 s
  | Integration                                :        1.073 s           1.073 s
  | Solution of K.-S. eqns.                    :        0.056 s           0.056 s
  | Total energy evaluation                    :        0.000 s           0.001 s
------------------------------------------------------------

------------------------------------------------------------
          Begin self-consistency iteration #    8

  Date     :  20150727, Time     :  122540.070
------------------------------------------------------------
  Evaluating new KS density.
  Integration grid: deviation in total charge (<rho> - N_e) =   5.505285E-11
  Pulay mixing of updated and previous charge densities.

  Evaluating partitioned Hartree potential by multipole expansion.
  | Analytical far-field extrapolation by fixed multipoles:
  | Hartree multipole sum: apparent total charge =  -0.659075E-05
  Summing up the Hartree potential.
  Time summed over all CPUs for potential: real work        2.894 s, elapsed        2.901 s
  | RMS charge density error from multipole expansion :   0.181294E-01

  Integrating Hamiltonian matrix: batch-based integration.
  Time summed over all CPUs for integration: real work        8.408 s, elapsed        8.588 s

  Updating Kohn-Sham eigenvalues, eigenvectors, occupation numbers, and Fermi level.
  Solving generalized eigenproblem
  Updating Kohn-Sham eigenvalues and eigenfunctions.
  Solving real generalised eigenvalue problem by standard LAPACK (fast)
  Determining occupation numbers for Kohn-Sham eigenstates.
  | Chemical potential (Fermi level) in eV                 : -.20484760E+01
  | Error in electron count due to remaining E_F inaccuracy: -.42632564E-13
  | Maximum occupation number of highest empty state:  0.00E+00

  Highest occupied state (VBM) at     -6.28521229 eV
  | Occupation number:      2.00000000

  Lowest unoccupied state (CBM) at    -2.04847605 eV
  | Occupation number:      1.00000000

  Overall HOMO-LUMO gap:      4.23673624 eV.

  Total energy components:
  | Sum of eigenvalues            :        -209.71517352 Ha       -5706.64022214 eV
  | XC energy correction          :         -46.86225097 Ha       -1275.18672981 eV
  | XC potential correction       :          59.90366710 Ha        1630.06171850 eV
  | Free-atom electrostatic energy:        -178.65533008 Ha       -4861.45887989 eV
  | Hartree energy correction     :          -7.93226129 Ha        -215.84781192 eV
  | van der Waals energy corr.    :           0.00000000 Ha           0.00000000 eV
  | Entropy correction            :          -0.00010367 Ha          -0.00282095 eV
  | ---------------------------
  | Total energy                  :        -383.26134877 Ha      -10429.07192526 eV
  | Total energy, T -> 0          :        -383.26145243 Ha      -10429.07474621 eV  <-- do not rely on this value for anything but (periodic) metals
  | Electronic free energy        :        -383.26155610 Ha      -10429.07756716 eV

  Derived energy quantities:
  | Kinetic energy                :         382.32625210 Ha       10403.62665030 eV
  | Electrostatic energy          :        -718.72534989 Ha      -19557.51184576 eV
  | Energy correction for multipole
  | error in Hartree potential    :          -0.00410790 Ha          -0.11178153 eV
  | Sum of eigenvalues per atom                           :        -356.66501388 eV
  | Total energy (T->0) per atom                          :        -651.81717164 eV  <-- do not rely on this value for anything but (periodic) metals
  | Electronic free energy per atom                       :        -651.81734795 eV

  Self-consistency convergence accuracy:
  | Change of charge density      : 0.5526E-02
  | Change of sum of eigenvalues  : -.1370E+01 eV
  | Change of total energy        : 0.2097E-03 eV

  End self-consistency iteration #     8       :  max(cpu_time)    wall_clock(cpu1)
  | Time for this iteration                    :        2.198 s           2.198 s
  | Charge density update                      :        0.683 s           0.683 s
  | Density mixing                             :        0.014 s           0.014 s
  | Hartree multipole update                   :        0.005 s           0.005 s
  | Hartree multipole summation                :        0.364 s           0.364 s
  | Integration                                :        1.075 s           1.075 s
  | Solution of K.-S. eqns.                    :        0.057 s           0.056 s
  | Total energy evaluation                    :        0.000 s           0.000 s
------------------------------------------------------------

------------------------------------------------------------
          Begin self-consistency iteration #    9

  Date     :  20150727, Time     :  122542.268
------------------------------------------------------------
  Evaluating new KS density.
  Integration grid: deviation in total charge (<rho> - N_e) =   1.421085E-14
  Pulay mixing of updated and previous charge densities.

  Evaluating partitioned Hartree potential by multipole expansion.
  | Analytical far-field extrapolation by fixed multipoles:
  | Hartree multipole sum: apparent total charge =  -0.654279E-05
  Summing up the Hartree potential.
  Time summed over all CPUs for potential: real work        2.894 s, elapsed        2.901 s
  | RMS charge density error from multipole expansion :   0.181294E-01

  Integrating Hamiltonian matrix: batch-based integration.
  Time summed over all CPUs for integration: real work        8.411 s, elapsed        8.585 s

  Updating Kohn-Sham eigenvalues, eigenvectors, occupation numbers, and Fermi level.
  Solving generalized eigenproblem
  Updating Kohn-Sham eigenvalues and eigenfunctions.
  Solving real generalised eigenvalue problem by standard LAPACK (fast)
  Determining occupation numbers for Kohn-Sham eigenstates.
  | Chemical potential (Fermi level) in eV                 : -.20514795E+01
  | Error in electron count due to remaining E_F inaccuracy: -.25579538E-12
  | Maximum occupation number of highest empty state:  0.00E+00

  Highest occupied state (VBM) at     -6.29003925 eV
  | Occupation number:      2.00000000

  Lowest unoccupied state (CBM) at    -2.05147949 eV
  | Occupation number:      1.00000000

  Overall HOMO-LUMO gap:      4.23855976 eV.

  Total energy components:
  | Sum of eigenvalues            :        -209.72576445 Ha       -5706.92841594 eV
  | XC energy correction          :         -46.86131075 Ha       -1275.16114491 eV
  | XC potential correction       :          59.90239562 Ha        1630.02711965 eV
  | Free-atom electrostatic energy:        -178.65533008 Ha       -4861.45887989 eV
  | Hartree energy correction     :          -7.92133660 Ha        -215.55053589 eV
[...]
   Van der Waals               : 0.795263E-03 0.259799E-02 0.203814E-02
   ----------------------------------------------------------------
   Total forces(   7)            : 0.329620E+00 0.468856E+00 0.164863E+00
  atom #    8
   Hellmann-Feynman + Multipole  : 0.476384E+01 -.527509E+01 -.701126E+01
   Pulay + GGA                   : -.617139E+01 0.646399E+01 0.859675E+01
   Van der Waals               : -.659711E-03 0.222908E-02 -.623431E-02
   ----------------------------------------------------------------
   Total forces(   8)            : -.140820E+01 0.119113E+01 0.157926E+01
  atom #    9
   Hellmann-Feynman + Multipole  : -.284420E+00 0.253782E+00 -.168967E+01
   Pulay + GGA                   : 0.158939E-01 -.718482E-02 0.132616E+00
   Van der Waals               : 0.766773E-04 0.869353E-03 -.154110E-02
   ----------------------------------------------------------------
   Total forces(   9)            : -.268449E+00 0.247467E+00 -.155859E+01
  atom #   10
   Hellmann-Feynman + Multipole  : 0.145923E+01 -.146726E+01 0.396421E+00
   Pulay + GGA                   : -.971843E-01 0.845840E-01 -.713164E-02
   Van der Waals               : -.308944E-02 -.154950E-02 0.215583E-02
   ----------------------------------------------------------------
   Total forces(  10)            : 0.135895E+01 -.138422E+01 0.391445E+00
  atom #   11
   Hellmann-Feynman + Multipole  : -.109624E+01 -.404070E+01 -.145797E+02
   Pulay + GGA                   : 0.253374E+01 0.465068E+01 0.124327E+02
   Van der Waals               : 0.501569E-03 -.584837E-02 -.443756E-02
   ----------------------------------------------------------------
   Total forces(  11)            : 0.143799E+01 0.604135E+00 -.215146E+01
  atom #   12
   Hellmann-Feynman + Multipole  : -.374606E+00 -.246174E+00 0.238050E+00
   Pulay + GGA                   : 0.989126E-01 0.507922E-01 0.538428E-01
   Van der Waals               : -.520664E-02 -.178998E-02 -.215978E-03
   ----------------------------------------------------------------
   Total forces(  12)            : -.280900E+00 -.197172E+00 0.291677E+00
  atom #   13
   Hellmann-Feynman + Multipole  : -.615726E+00 -.301653E+00 0.152433E+01
   Pulay + GGA                   : -.378754E-01 -.266787E-01 0.643298E-01
   Van der Waals               : -.337348E-03 -.523077E-02 -.273135E-02
   ----------------------------------------------------------------
   Total forces(  13)            : -.653938E+00 -.333563E+00 0.158593E+01
  atom #   14
   Hellmann-Feynman + Multipole  : -.135505E+02 -.500530E+01 0.479366E+00
   Pulay + GGA                   : 0.142232E+02 0.661753E+01 -.125899E+01
   Van der Waals               : -.211130E-02 -.258159E-02 -.661209E-03
   ----------------------------------------------------------------
   Total forces(  14)            : 0.670676E+00 0.160965E+01 -.780284E+00
  atom #   15
   Hellmann-Feynman + Multipole  : -.133037E+00 -.190180E+00 0.103441E+00
   Pulay + GGA                   : 0.788192E-01 -.348221E-01 0.186586E-01
   Van der Waals               : -.980334E-03 -.469397E-02 -.153432E-02
   ----------------------------------------------------------------
   Total forces(  15)            : -.551980E-01 -.229696E+00 0.120565E+00
  atom #   16
   Hellmann-Feynman + Multipole  : -.781705E+00 -.148491E+01 0.691122E+00
   Pulay + GGA                   : 0.533658E-01 0.105111E+00 -.586662E-01
   Van der Waals               : 0.163256E-02 -.497103E-02 0.332182E-02
   ----------------------------------------------------------------
   Total forces(  16)            : -.726707E+00 -.138477E+01 0.635778E+00
  Timings for vdw_correction_hirshfeld (Tkatchenko-Scheffler 2009):
  | CPU time:        5.799 s, Wall clock time:        5.800 s.
  Removing unitary transformations (pure translations, rotations) from forces on atoms.
  Atomic forces before filtering:
  | Net force on center of mass :  0.390749E-02 -.573663E-02 0.290195E-02 eV/A
  | Net torque on center of mass:  0.928177E-02 -.678869E-02 -.110595E-01 eV
  Atomic forces after filtering:
  | Net force on center of mass :  -.892031E-16 0.178406E-15 0.267609E-15 eV/A
  | Net torque on center of mass:  -.151054E-14 -.283225E-15 -.160494E-14 eV
 
  Energy and forces in a compact form:
  | Total energy uncorrected      :         -0.104291692823642E+05 eV
  | Total energy corrected        :         -0.104291721033121E+05 eV  <-- do not rely on this value for anything but (periodic) metals
  | Electronic free energy        :         -0.104291749242600E+05 eV
  Total atomic forces (unitary forces cleaned) [eV/Ang]:
  |   1          0.180545149129867E+00          0.162798675917566E+01         -0.193851828193870E+01
  |   2          0.564105930555897E+00         -0.116460016555598E+01          0.466509401713294E+00
  |   3         -0.413755590415713E+00         -0.191812504674103E+00          0.412867501841155E-01
  |   4         -0.208137148007217E+00         -0.153559249046962E+00          0.140121082151485E+01
  |   5         -0.595385311764557E+00         -0.212952212255654E+01         -0.149684295281674E+01
  |   6          0.723270252587892E-01          0.141517009613738E+01          0.125015331918098E+01
  |   7          0.329889387756986E+00          0.469018674212288E+00          0.165087432831709E+00
  |   8         -0.140829660372188E+01          0.119164328178575E+01          0.157907827764678E+01
  |   9         -0.268435941650616E+00          0.248098288947503E+00         -0.155878638055724E+01
  |  10          0.135872505614406E+01         -0.138384103790563E+01          0.391260352142176E+00
  |  11          0.143759460397923E+01          0.604791547808119E+00         -0.215190465138674E+01
  |  12         -0.281353078740871E+00         -0.196359389890236E+00          0.291114054360204E+00
  |  13         -0.654221988209922E+00         -0.332933220047196E+00          0.158556959231989E+01
  |  14          0.669914350122025E+00          0.160983107293306E+01         -0.780657043452264E+00
  |  15         -0.558644206953012E-01         -0.229343163577432E+00          0.120147122873596E+00
  |  16         -0.727651419740766E+00         -0.138456886774568E+01          0.635292185384089E+00
 
  ------------------------------------ 
  Start decomposition of the XC Energy 
  ------------------------------------ 
  Hartree-Fock part   :          0.000000000 Ha              0.000000000 eV
  ------------------------------------ 
  X Energy            :        -45.204033857 Ha          -1230.064346239 eV
  C Energy GGA        :         -1.657582990 Ha            -45.105128075 eV
  Total XC Energy     :        -46.861616847 Ha          -1275.169474313 eV
  LDA X and C from self-consistent density 
  X Energy LDA        :        -40.745829770 Ha          -1108.750440640 eV
  C Energy LDA        :         -3.339006025 Ha            -90.858976786 eV
  ------------------------------------ 
  End decomposition of the XC Energy 
  ------------------------------------ 
  Performing Hirshfeld analysis of fragment charges and moments.
  ----------------------------------------------------------------------
  | Atom     1: O
  |   Hirshfeld charge        :     -0.11790801
  |   Free atom volume        :     23.95238533
  |   Hirshfeld volume        :     22.68729377
  |   Hirshfeld dipole vector :      0.00918940       0.02303417       0.03853717
  |   Hirshfeld dipole moment :      0.04582719
  |   Hirshfeld second moments:      0.06740039      -0.00176013      -0.00617639
  |                                 -0.00176013       0.02595942      -0.02560252
  |                                 -0.00617639      -0.02560252       0.03704689
  ----------------------------------------------------------------------
  | Atom     2: H
  |   Hirshfeld charge        :      0.07622990
  |   Free atom volume        :     10.44207651
  |   Hirshfeld volume        :     13.17329873
  |   Hirshfeld dipole vector :      0.01388451       0.00661939       0.02516835
  |   Hirshfeld dipole moment :      0.02949647
  |   Hirshfeld second moments:     -0.02710489       0.01826236      -0.00380075
  |                                  0.01826236      -0.02266491       0.01377244
  |                                 -0.00380075       0.01377244      -0.02384248
  ----------------------------------------------------------------------
  | Atom     3: H
  |   Hirshfeld charge        :      0.12316104
  |   Free atom volume        :     10.44207651
  |   Hirshfeld volume        :     11.48049711
  |   Hirshfeld dipole vector :      0.03608021       0.01839082       0.02373961
  |   Hirshfeld dipole moment :      0.04694223
  |   Hirshfeld second moments:      0.00252260      -0.00514379       0.00347565
  |                                 -0.00514379       0.02567042       0.00429037
  |                                  0.00347565       0.00429037       0.02579976
  ----------------------------------------------------------------------
  | Atom     4: H
  |   Hirshfeld charge        :      0.10078651
  |   Free atom volume        :     10.44207651
  |   Hirshfeld volume        :     10.09117520
  |   Hirshfeld dipole vector :     -0.00534606       0.00282529       0.02182902
  |   Hirshfeld dipole moment :      0.02265102
  |   Hirshfeld second moments:      0.04705903       0.01353614       0.00500193
  |                                  0.01353614       0.04906636       0.00281158
  |                                  0.00500193       0.00281158       0.01075760
  ----------------------------------------------------------------------
  | Atom     5: O
  |   Hirshfeld charge        :     -0.23980464
  |   Free atom volume        :     23.95238533
  |   Hirshfeld volume        :     22.16571701
  |   Hirshfeld dipole vector :     -0.02042185       0.02346717      -0.00085864
  |   Hirshfeld dipole moment :      0.03112069
  |   Hirshfeld second moments:      0.02608596       0.05021009      -0.01392585
  |                                  0.05021009       0.02628317       0.00972294
  |                                 -0.01392585       0.00972294       0.04693213
  ----------------------------------------------------------------------
  | Atom     6: H
  |   Hirshfeld charge        :      0.08850734
  |   Free atom volume        :     10.44207651
  |   Hirshfeld volume        :      9.46221613
  |   Hirshfeld dipole vector :      0.01610183       0.03221276       0.02371517
  |   Hirshfeld dipole moment :      0.04312006
  |   Hirshfeld second moments:      0.05299014       0.00788707      -0.00943671
  |                                  0.00788707       0.02971876      -0.01563522
  |                                 -0.00943671      -0.01563522       0.05328762
  ----------------------------------------------------------------------
  | Atom     7: H
  |   Hirshfeld charge        :      0.12480726
  |   Free atom volume        :     10.44207651
  |   Hirshfeld volume        :     10.16368904
  |   Hirshfeld dipole vector :     -0.06360465      -0.04564588       0.01938211
  |   Hirshfeld dipole moment :      0.08065212
  |   Hirshfeld second moments:      0.03280324       0.01517980      -0.00185616
  |                                  0.01517980       0.05292351       0.00932603
  |                                 -0.00185616       0.00932603       0.05373629
  ----------------------------------------------------------------------
  | Atom     8: O
  |   Hirshfeld charge        :     -0.18351690
  |   Free atom volume        :     23.95238533
  |   Hirshfeld volume        :     21.32664150
  |   Hirshfeld dipole vector :      0.00624351       0.00146815      -0.01528495
  |   Hirshfeld dipole moment :      0.01657608
  |   Hirshfeld second moments:      0.04492113      -0.01874973       0.00972087
  |                                 -0.01874973       0.05280625      -0.00875601
  |                                  0.00972087      -0.00875601       0.07080504
  ----------------------------------------------------------------------
  | Atom     9: H
  |   Hirshfeld charge        :      0.11446685
  |   Free atom volume        :     10.44207651
  |   Hirshfeld volume        :     10.29557843
  |   Hirshfeld dipole vector :      0.02028152      -0.01113926       0.05503125
  |   Hirshfeld dipole moment :      0.05969809
  |   Hirshfeld second moments:      0.04406779      -0.00936494       0.00420748
  |                                 -0.00936494       0.04855897      -0.00127284
  |                                  0.00420748      -0.00127284       0.02986938
  ----------------------------------------------------------------------
  | Atom    10: H
  |   Hirshfeld charge        :      0.13195413
  |   Free atom volume        :     10.44207651
  |   Hirshfeld volume        :      9.64158982
  |   Hirshfeld dipole vector :     -0.04021855       0.05279135      -0.02486519
  |   Hirshfeld dipole moment :      0.07087126
  |   Hirshfeld second moments:      0.04487037      -0.00003627      -0.00160877
  |                                 -0.00003627       0.05470706      -0.00162956
  |                                 -0.00160877      -0.00162956       0.06106958
  ----------------------------------------------------------------------
  | Atom    11: O
  |   Hirshfeld charge        :     -0.28470432
  |   Free atom volume        :     23.95238533
  |   Hirshfeld volume        :     22.19239800
  |   Hirshfeld dipole vector :     -0.01757037       0.04054426       0.03854004
  |   Hirshfeld dipole moment :      0.05863352
  |   Hirshfeld second moments:      0.05013308       0.04092978       0.01083408
  |                                  0.04092978       0.00154873      -0.02118469
  |                                  0.01083408      -0.02118469       0.00916047
  ----------------------------------------------------------------------
  | Atom    12: H
  |   Hirshfeld charge        :      0.13324885
  |   Free atom volume        :     10.44207651
  |   Hirshfeld volume        :      7.94328412
  |   Hirshfeld dipole vector :      0.08264065       0.06566754       0.02825646
  |   Hirshfeld dipole moment :      0.10927090
  |   Hirshfeld second moments:      0.09519948       0.00847639      -0.00386541
  |                                  0.00847639       0.07538118      -0.01537635
  |                                 -0.00386541      -0.01537635       0.08607943
  ----------------------------------------------------------------------
  | Atom    13: H
  |   Hirshfeld charge        :      0.07965848
  |   Free atom volume        :     10.44207651
  |   Hirshfeld volume        :      8.84263051
  |   Hirshfeld dipole vector :     -0.02974412      -0.00901001       0.03163766
  |   Hirshfeld dipole moment :      0.04434901
  |   Hirshfeld second moments:      0.05506465       0.00455766       0.02915240
  |                                  0.00455766       0.06020935       0.00501818
  |                                  0.02915240       0.00501818       0.04572590
  ----------------------------------------------------------------------
  | Atom    14: O
  |   Hirshfeld charge        :     -0.33876937
  |   Free atom volume        :     23.95238533
  |   Hirshfeld volume        :     24.03147664
  |   Hirshfeld dipole vector :      0.06869014       0.02816487       0.00114611
  |   Hirshfeld dipole moment :      0.07424896
  |   Hirshfeld second moments:     -0.04153161      -0.01624338       0.01257341
  |                                 -0.01624338      -0.00019112      -0.06172221
  |                                  0.01257341      -0.06172221      -0.06157633
  ----------------------------------------------------------------------
  | Atom    15: H
  |   Hirshfeld charge        :      0.07254943
  |   Free atom volume        :     10.44207651
  |   Hirshfeld volume        :      9.21251953
  |   Hirshfeld dipole vector :      0.05697138      -0.00814909       0.01733578
  |   Hirshfeld dipole moment :      0.06010553
  |   Hirshfeld second moments:      0.03347704       0.02640406      -0.01715058
  |                                  0.02640406       0.06059947      -0.01410583
  |                                 -0.01715058      -0.01410583       0.03844578
  ----------------------------------------------------------------------
  | Atom    16: H
  |   Hirshfeld charge        :      0.11928798
  |   Free atom volume        :     10.44207651
  |   Hirshfeld volume        :      8.01214915
  |   Hirshfeld dipole vector :      0.04024890       0.10215083      -0.04792732
  |   Hirshfeld dipole moment :      0.11979897
  |   Hirshfeld second moments:      0.09140845      -0.01190805       0.00877386
  |                                 -0.01190805       0.08117014      -0.01823216
  |                                  0.00877386      -0.01823216       0.06956614
  ----------------------------------------------------------------------


------------------------------------------------------------------------------
  Final output of selected total energy values:

  The following output summarizes some interesting total energy values
  at the end of a run (AFTER all relaxation, molecular dynamics, etc.).

  | Total energy of the DFT / Hartree-Fock s.c.f. calculation      :         -10429.169282364 eV
  | Final zero-broadening corrected energy (caution - metals only) :         -10429.172103312 eV
  | For reference only, the value of 1 Hartree used in FHI-aims is :             27.211384500 eV

  Before relying on these values, please be sure to understand exactly which
  total energy value is referred to by a given number. Different objects may
  all carry the same name 'total energy'. Definitions:

  Total energy of the DFT / Hartree-Fock s.c.f. calculation:
  | Note that this energy does not include ANY quantities calculated after the
  | s.c.f. cycle, in particular not ANY RPA, MP2, etc. many-body perturbation terms.

  Final zero-broadening corrected energy:
  | For metallic systems only, a broadening of the occupation numbers at the Fermi
  | level can be extrapolated back to zero broadening by an electron-gas inspired
  | formula. For all systems that are not real metals, this value can be
  | meaningless and should be avoided.

------------------------------------------------------------------------------

------------------------------------------------------------
          Leaving FHI-aims.
          Date     :  20150727, Time     :  122602.021

          Computational steps:
          | Number of self-consistency cycles          :           15

          Detailed time accounting                     :  max(cpu_time)    wall_clock(cpu1)
          | Total time                                 :       40.117 s          40.161 s
          | Preparation time                           :        0.168 s           0.533 s
          | Grid partitioning                          :        0.164 s           0.164 s
          | Preloading free-atom quantities on grid    :        0.014 s           0.013 s
          | Free-atom superposition energy             :        0.072 s           0.073 s
          | Total time for integrations                :       17.761 s          17.763 s
          | Total time for solution of K.-S. equations :        1.067 s           1.068 s
          | Total time for density & force components  :       13.242 s          13.247 s
          | Total time for mixing                      :        0.200 s           0.197 s
          | Total time for Hartree multipole update    :        0.073 s           0.074 s
          | Total time for Hartree multipole sum       :        6.669 s           6.668 s
          | Total time for total energy evaluation     :        0.007 s           0.005 s
          | Total time for scaled ZORA corrections     :        0.000 s           0.000 s
          | Total time for TS (2009) vdW correction    :        0.058 s           0.058 s

          Have a nice day.
------------------------------------------------------------
