  MPI-parallelism will be employed.
------------------------------------------------------------
          Invoking FHI-aims ...
          Version 081213
          Compiled on 2013/08/29 at 17:41:06 on host generoso.

          When using FHI-aims, please cite the following reference:

          Volker Blum, Ralf Gehrke, Felix Hanke, Paula Havu,
          Ville Havu, Xinguo Ren, Karsten Reuter, and Matthias Scheffler,
          'Ab Initio Molecular Simulations with Numeric Atom-Centered Orbitals: FHI-aims',
          Computer Physics Communications 180, 2175-2196 (2009)

          For any questions about FHI-aims, please visit the aimsclub website
          with its forums and wiki. Contributions to both the forums and the
          wiki are warmly encouraged - they are for you, and everyone is welcome there.

------------------------------------------------------------

  Date     :  20150727, Time     :  115533.623
  Time zero on CPU 1             :   0.329940000000000E-01  s.
  Internal wall clock time zero  :           207230133.623  s.

  Using        8 parallel tasks.
  Task        0 on host gen59 reporting.
  Task        1 on host gen59 reporting.
  Task        2 on host gen59 reporting.
  Task        3 on host gen59 reporting.
  Task        4 on host gen59 reporting.
  Task        5 on host gen59 reporting.
  Task        6 on host gen59 reporting.
  Task        7 on host gen59 reporting.

  Performing system and environment tests:
  | Environment variable OMP_NUM_THREADS correctly set to 1.
  | Checking for scalapack...
  | No scalapack compiled in.

  Obtaining array dimensions for all initial allocations:
  
  -----------------------------------------------------------------------
  Parsing control.in (first pass over file, find array dimensions only).
  The contents of control.in will be repeated verbatim below
  unless switched off by setting 'verbatim_writeout .false.' .
  in the first line of control.in .
  -----------------------------------------------------------------------
  
  #########################################################################################
  #
  #  Volker Blum, FHI 2008 : Test run input file control.in
  #
  #########################################################################################
  #
  #  Physical model
  #
    xc                 rpbe
    spin               none
    relativistic       atomic_zora scalar
    charge             0.
   vdw_correction_hirshfeld
  #
  #  SCF convergence
  #
    occupation_type    gaussian 0.01
    mixer              pulay
      n_max_pulay        10
      charge_mix_param   0.1
    sc_accuracy_rho    5E-5
    sc_accuracy_eev    5E-3
    sc_accuracy_etot   5E-6
    sc_iter_limit      3000
  #
  #  Eigenvalue solver
  #
    KS_method          lapack
      empty_states       8
      basis_threshold    0.e-5
  #
  #  Efficiency
  #
  #   all previous settings are now default, except stratmann still
  #   undecided. Continue to handle stratmann with care, if at all.
  #
  #  partition_type stratmann
    partition_type rho_r2
  #  hartree_partition_type stratmann
  #
  #  Oprions for large clusters (100's of atoms: memory saving / better scaling)
  #
  # for periodic systems:
  #
    density_update_method orbital
    packed_matrix_format none
  #  k_grid 6 6 6
  #  output k_eigenvalue 1
  #  distributed_spline_storage .true.
  #
  #  Relaxation
  #
  #  relax_geometry   bfgs 5.e-3
    sc_accuracy_forces 5.E-4
    final_forces_cleaned .true.
  #
  #  Output options
  #
  #  output mulliken
    output Hirshfeld
  #  output dipole
  
  #harmonic_length_scale 0.001
  
  ################################################################################
  #
  #  FHI-aims code project
  #  VB, Fritz-Haber Institut, 2007
  #
  #  Suggested "safe" defaults for H atom (to be pasted into control.in file)
  #  Basis constructed for a non-relativistic H2 molecule using the
  #  PW-LDA functional.
  #
  ################################################################################
    species        H
  #     global species definitions
      nucleus             1
      cut_pot             4.0  2.0  1.0
      cut_free_atom       finite 8.0
      logarithmic         0.00010000 100.00  1.0123
      basis_dep_cutoff    1d-4  # 1d-4 is safe default - please check 5d-4 if you wish!
      radial_base         24 7.0
      radial_multiplier   2
      angular_grids       specified
        division   0.2783  110
        division   0.3822  194
        division   0.5626  302
  #      division   0.5922  434
  #      division   0.6227  590
  #      division   0.7206  770
        outer_grid  302
      l_hartree           4
  ################################################################################
  #
  #  Definition of "minimal" basis
  #
  ################################################################################
  #     valence basis states
      valence      1  s   1.
  #     ion occupancy
      ion_occ      1  s   0.5
  ################################################################################
  #
  #  Suggested additional basis functions. For production calculations,
  #  uncomment them one after another (the most important basis functions are
  #  listed first).
  #
  ################################################################################
  #  "First tier" - improvements: -1014.90 meV to -62.69 meV
       hydro 2 s 2.1
       hydro 2 p 3.5
  #  "Second tier" - improvements: -12.89 meV to -1.83 meV
       hydro 1 s 0.85
       hydro 2 p 3.7
       hydro 2 s 1.2
       hydro 3 d 7
  #  "Third tier" - improvements: -0.25 meV to -0.12 meV
  #     hydro 4 f 11.2
  #     hydro 3 p 4.8
  #     hydro 4 d 9
  #     hydro 3 s 3.2
  
  ################################################################################
  #
  #  FHI-aims code project
  #  VB, Fritz-Haber Institut, 2007
  #
  #  Suggested "safe" defaults for O atom (to be pasted into control.in file)
  #  All values have been tested for a non-relativistic, non-spinpolarized O2
  #  molecule using the PW-LDA functional. Validity for PBE is expected.
  #
  #  Constructed for dimers: 1.0 A, 1.208 A, 1.5 A, 2.0 A, 3.0 A
  #
  ################################################################################
    species        O
  #     global species definitions
      nucleus             8
      mass                15.9994
      l_hartree           4
      cut_pot             4.0  2.0  1.0
      cut_free_atom       finite 8.0
      basis_dep_cutoff    1d-4  # 1d-4 is safe default - please check 5d-4 if you wish!
      logarithmic         0.00010000 100.00  1.0123
      radial_base         36 7.0
      radial_multiplier   2
       angular_grids specified
        division   0.4087  110
        division   0.5181  194
        division   0.6184  302
  #      division   0.7315  434
  #      division   0.7934  590
  #      division   0.9656  770
  #      division   1.4041  974
  #      outer_grid 974
        outer_grid 302
  ################################################################################
  #
  #  Definition of "minimal" basis
  #
  ################################################################################
  #     valence basis states
      valence      2  s   2.
      valence      2  p   4.
  #     ion occupancy
      ion_occ      2  s   1.
      ion_occ      2  p   3.
  ################################################################################
  #
  #  Suggested additional basis functions. For production calculations,
  #  uncomment them one after another (the most important basis functions are
  #  listed first).
  #
  ################################################################################
  #  "First tier" - improvements: -699.05 meV to -159.38 meV
       hydro 2 p 1.8
       hydro 3 d 7.6
       hydro 3 s 6.4
  #  "Second tier" - improvements: -49.91 meV to -5.39 meV
       hydro 4 f 11.6
       hydro 3 p 6.2
       hydro 3 d 5.6
       hydro 5 g 17.6
       hydro 1 s 0.75
  #  "Third tier" - improvements: -2.83 meV to -0.50 meV
  #     ionic 2 p auto
  #     hydro 4 f 10.8
  #     hydro 4 d 4.7
  #     hydro 2 s 6.8
  #  "Fourth tier" - improvements: -0.40 meV to -0.12 meV
  #     hydro 3 p 5
  #     hydro 3 s 3.3
  #     hydro 5 g 15.6
  #     hydro 4 f 17.6
  #     hydro 4 d 14
  # Further basis functions - -0.08 meV and below
  #     hydro 3 s 2.1
  #     hydro 4 d 11.6
  #     hydro 3 p 16
  #     hydro 2 s 17.2
  
  
  -----------------------------------------------------------------------
  Completed first pass over input file control.in .
  -----------------------------------------------------------------------
  
  
  -----------------------------------------------------------------------
  Parsing geometry.in (first pass over file, find array dimensions only).
  The contents of geometry.in will be repeated verbatim below
  unless switched off by setting 'verbatim_writeout .false.' .
  in the first line of geometry.in .
  -----------------------------------------------------------------------
  
  atom      -4.053030000      0.065001000     -1.525160000  O
  atom      -4.566710000      0.974813000     -1.912820000  H
  atom      -3.067820000      0.330172000     -1.477310000  H
  atom      -4.370360000     -0.049164000     -0.572274000  H
  atom      -4.581760000     -0.256435000      0.939478000  O
  atom      -4.349860000      0.471090000      1.504340000  H
  atom      -5.393870000     -0.726611000      1.228070000  H
  atom      -5.293160000      2.192130000     -2.328800000  O
  atom      -4.829300000      2.988660000     -1.973850000  H
  atom      -5.428570000      2.328640000     -3.235170000  H
  atom      -1.645860000      0.870179000     -1.502250000  O
  atom      -1.568890000      1.501730000     -0.721051000  H
  atom      -0.824432000      0.282220000     -1.377720000  H
  atom      -4.066610000      4.258280000     -0.900064000  O
  atom      -3.224110000      3.876870000     -0.569443000  H
  atom      -3.737450000      5.116530000     -1.322720000  H
  atom      -5.628340000      3.730740000      1.385610000  O
  atom      -6.090650000      4.418470000      1.860350000  H
  atom      -5.158540000      4.200260000      0.615875000  H
  
  -----------------------------------------------------------------------
  Completed first pass over input file geometry.in .
  -----------------------------------------------------------------------
  
 
  Basic array size parameters: 
  | Number of species                 :        2
  | Number of atoms                   :       19
  | Max. basis fn. angular momentum   :        4
  | Max. atomic/ionic basis occupied n:        2
  | Max. number of basis fn. types    :        2
  | Max. radial fns per species/type  :        8
  | Max. logarithmic grid size        :     1301
  | Max. radial integration grid size :       73
  | Max. angular integration grid size:      302
  | Max. angular grid division number :        8
  | Radial grid for Hartree potential :     1301
  | Number of spin channels           :        1

------------------------------------------------------------
          Reading file control.in.
------------------------------------------------------------
  XC: Using RPBE gradient-corrected functionals.
  Spin treatment: No spin polarisation.
  Scalar relativistic treatment of kinetic energy: on-site free-atom approximation to ZORA.
  Charge =   0.000000E+00: Neutral system requested explicitly.
  Using non-empirical van der Waals correction (Hirshfeld partitioning):
  Occupation type: Gaussian broadening, width =   0.100000E-01 eV.
  Using pulay charge density mixing.
  Pulay mixing - number of memorized iterations:   10
  Charge density mixing - mixing parameter:     0.1000
  Convergence accuracy of self-consistent charge density: 0.5000E-04
  Convergence accuracy of sum of eigenvalues: 0.5000E-02
  Convergence accuracy of total energy: 0.5000E-05
  Maximum number of s.-c. iterations  :  3000
  Kohn-Sham eigenvalues and eigenfunctions calculated by lapack diagonalisation (D&C).
  Number of empty states per atom:        8
  Threshold for basis singularities: 0.0000E+00
  Partition function in integrals calculations: rho / r^2
 Using packed matrix format           0
  Convergence accuracy of forces: 0.5000E-03
  Cleaning forces before final output.
  Hirshfeld charge analysis will be performed.
 
  Reading configuration options for species H                   .
  | Found nuclear charge :   1.0000
  | Found cutoff potl. onset [A], width [A], scale factor :    4.00000    2.00000    1.00000
  | Found cutoff specification for free atom: Cutoff potential begins at    8.00000 A.
  | Found logarithmic grid data [bohr] : 0.1000E-03 0.1000E+03 0.1012E+01
  | Threshold for basis-dependent cutoff potential is   0.100000E-03
  | Found data for basic radial integration grid :    24 points, outermost radius =    7.000 A
  | Found multiplier for basic radial grid :   2
  | Found angular grid specification: user-specified.
  | Specified grid contains     4 separate shells.
  | Check grid settings after all constraints further below.
  | Found l_max for Hartree potential  :   4
  | Found free-atom valence shell :  1 s   1.000
  | No ionic wave fns used. Skipping ion_occ.
  | Found hydrogenic basis function :  2 s   2.100
  | Found hydrogenic basis function :  2 p   3.500
  | Found hydrogenic basis function :  1 s   0.850
  | Found hydrogenic basis function :  2 p   3.700
  | Found hydrogenic basis function :  2 s   1.200
  | Found hydrogenic basis function :  3 d   7.000
  Species H                   : Missing cutoff potential type.
  Defaulting to exp(1/x)/(1-x)^2 type cutoff potential.
  Species H : On-site basis accuracy parameter (for Gram-Schmidt orthonormalisation) not specified.
  Using default value basis_acc =  0.1000000E-03.
  Species H                   : Using default innermost maximum threshold i_radial=  2 for radial functions.
  Species H                   : Basic radial grid will be enhanced according to radial_multiplier =   2, to contain    49 grid points.
 
  Reading configuration options for species O                   .
  | Found nuclear charge :   8.0000
  | Found atomic mass :    15.9994000000000      amu
  | Found l_max for Hartree potential  :   4
  | Found cutoff potl. onset [A], width [A], scale factor :    4.00000    2.00000    1.00000
  | Found cutoff specification for free atom: Cutoff potential begins at    8.00000 A.
  | Threshold for basis-dependent cutoff potential is   0.100000E-03
  | Found logarithmic grid data [bohr] : 0.1000E-03 0.1000E+03 0.1012E+01
  | Found data for basic radial integration grid :    36 points, outermost radius =    7.000 A
  | Found multiplier for basic radial grid :   2
  | Found angular grid specification: user-specified.
  | Specified grid contains     4 separate shells.
  | Check grid settings after all constraints further below.
  | Found free-atom valence shell :  2 s   2.000
  | Found free-atom valence shell :  2 p   4.000
  | No ionic wave fns used. Skipping ion_occ.
  | No ionic wave fns used. Skipping ion_occ.
  | Found hydrogenic basis function :  2 p   1.800
  | Found hydrogenic basis function :  3 d   7.600
  | Found hydrogenic basis function :  3 s   6.400
  | Found hydrogenic basis function :  4 f  11.600
  | Found hydrogenic basis function :  3 p   6.200
  | Found hydrogenic basis function :  3 d   5.600
  | Found hydrogenic basis function :  5 g  17.600
  | Found hydrogenic basis function :  1 s   0.750
  Species O                   : Missing cutoff potential type.
  Defaulting to exp(1/x)/(1-x)^2 type cutoff potential.
  Species O : On-site basis accuracy parameter (for Gram-Schmidt orthonormalisation) not specified.
  Using default value basis_acc =  0.1000000E-03.
  Species O                   : Using default innermost maximum threshold i_radial=  2 for radial functions.
  Species O                   : Basic radial grid will be enhanced according to radial_multiplier =   2, to contain    73 grid points.
 
  Finished reading input file 'control.in'. Consistency checks are next.
 
  Target number of points in a grid batch is not set. Defaulting to  100
  Method for grid partitioning is not set. Defaulting to parallel hash+maxmin partitioning.
  Batch size limit is not set. Defaulting to    200
  By default, will store active basis functions for each batch.
  If in need of memory, prune_basis_once .false. can be used to disable this option.
  communication_type for Hartree potential was not specified.
  Defaulting to calc_hartree .
  Pulay mixer: Number of initial linear mixing iterations not set.
  Defaulting to    0 iterations.
  Work space size for distributed Hartree potential not set.
  Defaulting to   0.200000E+03 MB.
  Algorithm-dependent basis array size parameters:
  | n_max_pulay                         :       10
  Geometry relaxation not requested: no relaxation will be performed.
  Handling of forces: Unphysical translation and rotation will be removed from forces.
  No accuracy limit for integral partition fn. given. Defaulting to 0.1000E-14.
  No threshold value for u(r) in integrations given. Defaulting to 0.1000E-05.
  No accuracy for occupation numbers given. Defaulting to 0.1000E-07.
  No threshold value for occupation numbers given. Defaulting to 0.0000E+00.
  No accuracy for fermi level given. Defaulting to 0.1000E-19.
  Maximum # of iterations to find E_F not set. Defaulting to  200.
  Will not use alltoall communication since running on < 1024 CPUs.
  Partitioning for Hartree potential was not defined. Using partition_type for integrals.
  | Reporting present value of keyword multip_moments_threshold  :       0.10000000E-09
  | This value may affect high angular momentum components of the Hartree potential in periodic systems.
  No q(lm)/r^(l+1) cutoff set for long-range Hartree potential.
  | Using default value of  0.100000E-09 .
  | Verify using the multipole_threshold keyword.
  Defaulting to new monopole extrapolation.
  Density update method: Loop over occupied states selected for charge density update.
------------------------------------------------------------


------------------------------------------------------------
          Reading geometry description geometry.in.
------------------------------------------------------------
  Input structure read successfully.
  The structure contains       19 atoms,  and a total of         61.000 electrons.

  Input geometry:
  | No unit cell requested.
  | Atomic structure:
  |       Atom                x [A]            y [A]            z [A]
  |    1: Species O             -4.053030         0.065001        -1.525160
  |    2: Species H             -4.566710         0.974813        -1.912820
  |    3: Species H             -3.067820         0.330172        -1.477310
  |    4: Species H             -4.370360        -0.049164        -0.572274
  |    5: Species O             -4.581760        -0.256435         0.939478
  |    6: Species H             -4.349860         0.471090         1.504340
  |    7: Species H             -5.393870        -0.726611         1.228070
  |    8: Species O             -5.293160         2.192130        -2.328800
  |    9: Species H             -4.829300         2.988660        -1.973850
  |   10: Species H             -5.428570         2.328640        -3.235170
  |   11: Species O             -1.645860         0.870179        -1.502250
  |   12: Species H             -1.568890         1.501730        -0.721051
  |   13: Species H             -0.824432         0.282220        -1.377720
  |   14: Species O             -4.066610         4.258280        -0.900064
  |   15: Species H             -3.224110         3.876870        -0.569443
  |   16: Species H             -3.737450         5.116530        -1.322720
  |   17: Species O             -5.628340         3.730740         1.385610
  |   18: Species H             -6.090650         4.418470         1.860350
  |   19: Species H             -5.158540         4.200260         0.615875
  |

  | The smallest distance between any two atoms is         0.92654057 AA.
  |
  | The first atom of this pair is atom number                      8 .
  | The second atom of this pair is atom number                    10 .

  Structure-dependent array size parameters: 
  | Maximum number of distinct radial functions  :       18
  | Maximum number of basis functions            :      429
  | Number of Kohn-Sham states (occupied + empty):      107
------------------------------------------------------------

------------------------------------------------------------
          Preparing all fixed parts of the calculation.
------------------------------------------------------------
  Determining machine precision:
    2.225073858507201E-308
  Setting up grids for atomic and cluster calculations.

  Creating wave function, potential, and density for free atoms.

  Species: H

  List of occupied orbitals and eigenvalues:
    n    l              occ      energy [Ha]    energy [eV]
    1    0           1.0000        -0.241408        -6.5691


  Species: O

  List of occupied orbitals and eigenvalues:
    n    l              occ      energy [Ha]    energy [eV]
    1    0           2.0000       -18.944147      -515.4965
    2    0           2.0000        -0.883529       -24.0421
    2    1           4.0000        -0.330176        -8.9845

  Creating fixed part of basis set: Ionic, confined, hydrogenic.
 
  H                    hydrogenic:
 
  List of hydrogenic basis orbitals: 
    n    l      effective z      eigenvalue [eV]  inner max. [A]     outer max. [A]     outer radius [A]   
    2    0         2.100000       -14.9965           0.193241           1.317192           5.372934
    2    1         3.500000       -41.6672           0.602363           0.602363           4.056010
    1    0         0.850000        -9.8292           0.624864           0.624864           5.372934
    2    1         3.700000       -46.5653           0.573616           0.573616           3.909951
    2    0         1.200000        -4.5995           0.334977           2.228160           5.505921
    3    2         7.000000       -74.0753           0.680692           0.680692           3.769152
 
 
  O                    hydrogenic:
 
  List of hydrogenic basis orbitals: 
    n    l      effective z      eigenvalue [eV]  inner max. [A]     outer max. [A]     outer radius [A]   
    2    1         1.800000       -11.0118           1.178546           1.178546           5.432516
    3    2         7.600000       -87.3182           0.624117           0.624117           3.541422
    3    0         6.400000       -61.9209           0.061166           1.081887           4.306510
    4    3        11.600000      -114.4238           0.731621           0.731621           3.584982
    3    1         6.200000       -58.1113           0.255677           1.030255           4.306510
    3    2         5.600000       -47.4081           0.847222           0.847222           4.413102
    5    4        17.600000      -168.5799           0.749730           0.749730           3.372413
    1    0         0.750000        -7.6499           0.705275           0.705275           5.366508
 

  Adding cutoff potential to free-atom effective potential.
  Creating atomic-like basis functions for current effective potential.

  Species H                   :

  List of atomic basis orbitals and eigenvalues:
    n    l      energy [Ha]    energy [eV]    outer radius [A]
    1    0        -0.241374        -6.5681       5.372934


  Species O                   :

  List of atomic basis orbitals and eigenvalues:
    n    l      energy [Ha]    energy [eV]    outer radius [A]
    1    0       -18.944147      -515.4965       1.415745
    2    0        -0.883529       -24.0421       5.048305
    2    1        -0.330173        -8.9845       5.301302

  Assembling full basis from fixed parts.
  | Species H :   atomic orbital   1 s accepted.
  | Species H :    hydro orbital   2 s accepted.
  | Species H :    hydro orbital   1 s accepted.
  | Species H :    hydro orbital   2 s accepted.
  | Species H :    hydro orbital   2 p accepted.
  | Species H :    hydro orbital   2 p accepted.
  | Species H :    hydro orbital   3 d accepted.
  | Species O :   atomic orbital   1 s accepted.
  | Species O :    hydro orbital   3 s accepted.
  | Species O :   atomic orbital   2 s accepted.
  | Species O :    hydro orbital   1 s accepted.
  | Species O :    hydro orbital   3 p accepted.
  | Species O :   atomic orbital   2 p accepted.
  | Species O :    hydro orbital   2 p accepted.
  | Species O :    hydro orbital   3 d accepted.
  | Species O :    hydro orbital   3 d accepted.
  | Species O :    hydro orbital   4 f accepted.
  | Species O :    hydro orbital   5 g accepted.
 
  Basis size parameters after reduction:
  | Total number of radial functions:       18
  | Total number of basis functions :      429
 
  Testing on-site integration grid accuracy.
  |  Species  Function  <phi|h_atom|phi> (log., in eV)  <phi|h_atom|phi> (rad., in eV)
           1        1                 -6.5683835025                 -6.5684759159
           1        2                 13.3711789951                 13.3708738703
           1        3                 23.6590910787                 23.6532055418
           1        4                 16.2963827186                 16.1870710655 ***
           1        5                 28.7627214838                 28.7627215090
           1        6                 59.5965249172                 59.5965950857
           1        7                 60.2220506392                 60.2220503827
           2        8               -515.4964576505               -515.4964530710
           2        9                 15.3030791347                 15.3030722972
           2       10                -21.7296094581                -21.7296135470
           2       11                 14.2969371730                 14.2969701621
           2       12                 21.0679693190                 21.0679697493
           2       13                 -2.3833606469                 -2.3833613176
           2       14                 13.7067136422                 13.7066766629
           2       15                 45.8013116808                 45.8013116965
           2       16                 52.2309815402                 52.2309831494
           2       17                 85.4120732416                 85.4120732763
           2       18                142.1019167745                142.1019167817
 * Note: Onsite integrals marked "***" above are less accurate than
 * onsite_accuracy_threshold =    0.03000 eV. Usually, this is harmless.
 * When in doubt, tighten the "radial" and/or "radial_multiplier" flags to check.

  Preparing densities etc. for the partition functions (integrals / Hartree potential).

  Preparations completed.
  max(cpu_time)          :      0.170 s.
  Wall clock time (cpu1) :      0.499 s.
------------------------------------------------------------

------------------------------------------------------------
          Begin self-consistency loop: Initialization.

          Date     :  20150727, Time     :  115534.147
------------------------------------------------------------

  Initializing index lists of integration centers etc. from given atomic structure:
  | Number of centers in hartree potential         :        19
  | Number of centers in hartree multipole         :        19
  | Number of centers in electron density summation:        19
  | Number of centers in basis integrals           :        19
  | Number of centers in integrals                 :        19
  Partitioning the integration grid into batches with parallel hashing+maxmin method.
  | Number of batches:     2407
  | Maximal batch size:     196
  | Minimal batch size:      58
  | Average batch size:     102.886
  | Standard deviation of batch sizes:      35.238

  Integration load balanced across     8 MPI tasks.
  Work distribution over tasks is as follows:
  Task     0 has      30899 integration points.
  Task     1 has      31018 integration points.
  Task     2 has      31045 integration points.
  Task     3 has      30909 integration points.
  Task     4 has      30862 integration points.
  Task     5 has      30998 integration points.
  Task     6 has      31016 integration points.
  Task     7 has      30899 integration points.
  Initializing partition tables, free-atom densities, potentials, etc. across the integration grid (initialize_grid_storage).
  | Net number of integration points:   247646
  | of which are non-zero points    :   247064
  Obtaining max. number of non-zero basis functions in each batch (get_n_compute_maxes).
  | Maximal number of non-zero basis functions:      424 in task     0
  | Maximal number of non-zero basis functions:      424 in task     1
  | Maximal number of non-zero basis functions:      424 in task     2
  | Maximal number of non-zero basis functions:      425 in task     3
  | Maximal number of non-zero basis functions:      424 in task     4
  | Maximal number of non-zero basis functions:      425 in task     5
  | Maximal number of non-zero basis functions:      424 in task     6
  | Maximal number of non-zero basis functions:      423 in task     7
  Integrating Hamiltonian matrix: batch-based integration.
  Time summed over all CPUs for integration: real work       11.702 s, elapsed       12.009 s
  Integrating overlap matrix.
  Time summed over all CPUs for integration: real work        6.362 s, elapsed        6.457 s

  Updating Kohn-Sham eigenvalues, eigenvectors, occupation numbers, and Fermi level.
  Solving generalized eigenproblem
  Updating Kohn-Sham eigenvalues and eigenfunctions.
  Transforming overlap matrix and checking for singularities.
  Overlap matrix is nonsingular:
  | Lowest eigenvalue:  0.187216E-03
  Solving real generalised eigenvalue problem by standard LAPACK (fast)
  Determining occupation numbers for Kohn-Sham eigenstates.
  | Chemical potential (Fermi level) in eV                 : -.28259485E+01
  | Error in electron count due to remaining E_F inaccuracy: -.42632564E-13
  | Maximum occupation number of highest empty state:  0.00E+00

  Writing Kohn-Sham eigenvalues.

  State    Occupation    Eigenvalue [Ha]    Eigenvalue [eV]
      1       2.00000         -19.065400         -518.79593
      2       2.00000         -19.064976         -518.78439
      3       2.00000         -19.059135         -518.62545
      4       2.00000         -19.045342         -518.25011
      5       2.00000         -19.044623         -518.23056
      6       2.00000         -19.042493         -518.17261
      7       2.00000          -1.132143          -30.80718
      8       2.00000          -1.117881          -30.41910
      9       2.00000          -1.104153          -30.04553
     10       2.00000          -1.093654          -29.75983
     11       2.00000          -1.086095          -29.55416
     12       2.00000          -1.081637          -29.43285
     13       2.00000          -0.654113          -17.79932
     14       2.00000          -0.651881          -17.73859
     15       2.00000          -0.647731          -17.62565
     16       2.00000          -0.627347          -17.07097
     17       2.00000          -0.623428          -16.96433
     18       2.00000          -0.607383          -16.52773
     19       2.00000          -0.602522          -16.39546
     20       2.00000          -0.544140          -14.80680
     21       2.00000          -0.520256          -14.15689
     22       2.00000          -0.509099          -13.85329
     23       2.00000          -0.504550          -13.72951
     24       2.00000          -0.498874          -13.57505
     25       2.00000          -0.483240          -13.14962
     26       2.00000          -0.453082          -12.32898
     27       2.00000          -0.446096          -12.13889
     28       2.00000          -0.439182          -11.95076
     29       2.00000          -0.435873          -11.86072
     30       2.00000          -0.430065          -11.70267
     31       1.00000          -0.103852           -2.82595
     32       0.00000          -0.072043           -1.96039
     33       0.00000          -0.066905           -1.82058
     34       0.00000          -0.051564           -1.40312
     35       0.00000          -0.039890           -1.08546
     36       0.00000          -0.022385           -0.60912
     37       0.00000           0.000959            0.02609
     38       0.00000           0.008721            0.23731
     39       0.00000           0.022985            0.62547
     40       0.00000           0.034736            0.94523
     41       0.00000           0.039529            1.07564
     42       0.00000           0.049839            1.35618
     43       0.00000           0.060320            1.64138
     44       0.00000           0.071201            1.93747
     45       0.00000           0.080298            2.18502
     46       0.00000           0.085819            2.33526
     47       0.00000           0.092138            2.50720
     48       0.00000           0.095507            2.59889
     49       0.00000           0.097843            2.66243
     50       0.00000           0.109864            2.98954
     51       0.00000           0.116676            3.17492
     52       0.00000           0.123658            3.36490
     53       0.00000           0.130576            3.55315
     54       0.00000           0.132837            3.61469
     55       0.00000           0.134026            3.64704
     56       0.00000           0.143089            3.89365
     57       0.00000           0.147674            4.01840
     58       0.00000           0.150792            4.10325
     59       0.00000           0.162556            4.42337
     60       0.00000           0.180873            4.92180
     61       0.00000           0.188667            5.13390
     62       0.00000           0.204715            5.57058
     63       0.00000           0.215699            5.86946
     64       0.00000           0.221301            6.02192
     65       0.00000           0.232652            6.33079
     66       0.00000           0.239761            6.52424
     67       0.00000           0.253940            6.91007
     68       0.00000           0.268986            7.31949
     69       0.00000           0.284506            7.74181
     70       0.00000           0.292672            7.96402
     71       0.00000           0.298260            8.11607
     72       0.00000           0.303350            8.25456
     73       0.00000           0.331586            9.02291
     74       0.00000           0.342256            9.31325
     75       0.00000           0.355648            9.67768
     76       0.00000           0.360591            9.81219
     77       0.00000           0.371100           10.09815
     78       0.00000           0.374034           10.17799
     79       0.00000           0.385885           10.50045
     80       0.00000           0.387875           10.55462
     81       0.00000           0.414483           11.27864
     82       0.00000           0.423306           11.51874
     83       0.00000           0.427590           11.63532
     84       0.00000           0.438013           11.91893
     85       0.00000           0.445870           12.13273
     86       0.00000           0.449376           12.22815
     87       0.00000           0.459128           12.49352
     88       0.00000           0.473878           12.89487
     89       0.00000           0.492775           13.40909
     90       0.00000           0.505611           13.75838
     91       0.00000           0.508341           13.83266
     92       0.00000           0.527484           14.35356
     93       0.00000           0.540185           14.69918
     94       0.00000           0.555060           15.10396
     95       0.00000           0.574595           15.63553
     96       0.00000           0.590725           16.07443
     97       0.00000           0.603210           16.41418
     98       0.00000           0.611432           16.63791
     99       0.00000           0.641142           17.44637
    100       0.00000           0.674274           18.34793
    101       0.00000           0.706162           19.21564
    102       0.00000           0.713665           19.41982
    103       0.00000           0.738962           20.10817
    104       0.00000           0.746017           20.30015
    105       0.00000           0.774492           21.07501
    106       0.00000           0.781936           21.27757
    107       0.00000           0.794168           21.61040

  Highest occupied state (VBM) at    -11.70267118 eV
  | Occupation number:      2.00000000

  Lowest unoccupied state (CBM) at    -2.82594845 eV
  | Occupation number:      1.00000000

  Overall HOMO-LUMO gap:      8.87672272 eV.
  Calculating total energy contributions from superposition of free atom densities.

  Total energy components:
  | Sum of eigenvalues            :        -261.33664109 Ha       -7111.33182459 eV
  | XC energy correction          :         -55.10246075 Ha       -1499.41424637 eV
  | XC potential correction       :          70.42969833 Ha        1916.48960148 eV
  | Free-atom electrostatic energy:        -214.15489709 Ha       -5827.45124740 eV
  | Hartree energy correction     :           0.00000000 Ha           0.00000000 eV
  | van der Waals energy corr.    :           0.00000000 Ha           0.00000000 eV
  | Entropy correction            :          -0.00010367 Ha          -0.00282095 eV
  | ---------------------------
  | Total energy                  :        -460.16430060 Ha      -12521.70771689 eV
  | Total energy, T -> 0          :        -460.16440427 Ha      -12521.71053783 eV  <-- do not rely on this value for anything but (periodic) metals
  | Electronic free energy        :        -460.16450794 Ha      -12521.71335878 eV

  Derived energy quantities:
  | Kinetic energy                :         455.78206357 Ha       12402.46097988 eV
  | Electrostatic energy          :        -860.84390342 Ha      -23424.75445040 eV
  | Energy correction for multipole
  | error in Hartree potential    :           0.00000000 Ha           0.00000000 eV
  | Sum of eigenvalues per atom                           :        -374.28062235 eV
  | Total energy (T->0) per atom                          :        -659.03739673 eV  <-- do not rely on this value for anything but (periodic) metals
  | Electronic free energy per atom                       :        -659.03754520 eV
  Initialize hartree_potential_storage
  Max. number of atoms included in rho_multipole:           19

  End scf initialization - timings             :  max(cpu_time)    wall_clock(cpu1)
  | Time for scf. initialization               :        3.138 s           3.137 s
  | Boundary condition initialization          :        0.000 s           0.000 s
  | Integration                                :        2.314 s           2.314 s
  | Solution of K.-S. eqns.                    :        0.324 s           0.324 s
  | Grid partitioning                          :        0.179 s           0.179 s
  | Preloading free-atom quantities on grid    :        0.014 s           0.013 s
  | Free-atom superposition energy             :        0.096 s           0.097 s
  | Total energy evaluation                    :        0.001 s           0.000 s
------------------------------------------------------------

------------------------------------------------------------
          Begin self-consistency iteration #    1

  Date     :  20150727, Time     :  115537.284
------------------------------------------------------------
  Evaluating new KS density.
  Integration grid: deviation in total charge (<rho> - N_e) =  -4.973799E-14
  Pulay mixing of updated and previous charge densities.

  Evaluating partitioned Hartree potential by multipole expansion.
  | Analytical far-field extrapolation by fixed multipoles:
  | Hartree multipole sum: apparent total charge =  -0.185915E-05
  Summing up the Hartree potential.
  Time summed over all CPUs for potential: real work        4.061 s, elapsed        4.088 s
  | RMS charge density error from multipole expansion :   0.183852E-02

  Integrating Hamiltonian matrix: batch-based integration.
  Time summed over all CPUs for integration: real work       11.656 s, elapsed       11.910 s

  Updating Kohn-Sham eigenvalues, eigenvectors, occupation numbers, and Fermi level.
  Solving generalized eigenproblem
  Updating Kohn-Sham eigenvalues and eigenfunctions.
  Solving real generalised eigenvalue problem by standard LAPACK (fast)
  Determining occupation numbers for Kohn-Sham eigenstates.
  | Chemical potential (Fermi level) in eV                 : -.25929948E+01
  | Error in electron count due to remaining E_F inaccuracy: 0.85265128E-13
  | Maximum occupation number of highest empty state:  0.00E+00

  Writing Kohn-Sham eigenvalues.

  State    Occupation    Eigenvalue [Ha]    Eigenvalue [eV]
      1       2.00000         -19.004961         -517.15131
      2       2.00000         -18.993299         -516.83395
      3       2.00000         -18.988900         -516.71427
      4       2.00000         -18.974744         -516.32905
      5       2.00000         -18.974743         -516.32902
      6       2.00000         -18.959399         -515.91149
      7       2.00000          -1.100931          -29.95784
      8       2.00000          -1.083551          -29.48492
      9       2.00000          -1.070894          -29.14051
     10       2.00000          -1.056434          -28.74704
     11       2.00000          -1.048731          -28.53742
     12       2.00000          -1.043428          -28.39312
     13       2.00000          -0.624130          -16.98345
     14       2.00000          -0.623182          -16.95764
     15       2.00000          -0.620383          -16.88149
     16       2.00000          -0.600613          -16.34352
     17       2.00000          -0.586243          -15.95249
     18       2.00000          -0.576161          -15.67815
     19       2.00000          -0.574234          -15.62571
     20       2.00000          -0.512233          -13.93858
     21       2.00000          -0.485537          -13.21213
     22       2.00000          -0.474433          -12.90999
     23       2.00000          -0.470895          -12.81370
     24       2.00000          -0.456471          -12.42121
     25       2.00000          -0.450721          -12.26475
     26       2.00000          -0.417051          -11.34855
     27       2.00000          -0.411110          -11.18688
     28       2.00000          -0.402138          -10.94273
     29       2.00000          -0.401404          -10.92276
     30       2.00000          -0.383924          -10.44709
     31       1.00000          -0.095291           -2.59299
     32       0.00000          -0.063905           -1.73894
     33       0.00000          -0.059646           -1.62304
     34       0.00000          -0.043212           -1.17586
     35       0.00000          -0.031091           -0.84602
     36       0.00000          -0.015412           -0.41939
     37       0.00000           0.007843            0.21342
     38       0.00000           0.017987            0.48945
     39       0.00000           0.033069            0.89986
     40       0.00000           0.043699            1.18911
     41       0.00000           0.048998            1.33330
     42       0.00000           0.056634            1.54109
     43       0.00000           0.067643            1.84066
     44       0.00000           0.079149            2.15375
     45       0.00000           0.090163            2.45345
     46       0.00000           0.094736            2.57789
     47       0.00000           0.100967            2.74744
     48       0.00000           0.105225            2.86331
     49       0.00000           0.109298            2.97414
     50       0.00000           0.120481            3.27845
     51       0.00000           0.126014            3.42902
     52       0.00000           0.134432            3.65808
     53       0.00000           0.140627            3.82664
     54       0.00000           0.141206            3.84242
     55       0.00000           0.144712            3.93781
     56       0.00000           0.153795            4.18498
     57       0.00000           0.158768            4.32030
     58       0.00000           0.162981            4.43494
     59       0.00000           0.171523            4.66737
     60       0.00000           0.188947            5.14151
     61       0.00000           0.198373            5.39800
     62       0.00000           0.213748            5.81638
     63       0.00000           0.225385            6.13304
     64       0.00000           0.228555            6.21931
     65       0.00000           0.240396            6.54151
     66       0.00000           0.248332            6.75745
     67       0.00000           0.261802            7.12398
     68       0.00000           0.278118            7.56798
     69       0.00000           0.291741            7.93868
     70       0.00000           0.299862            8.15966
     71       0.00000           0.305724            8.31919
     72       0.00000           0.310382            8.44593
     73       0.00000           0.339141            9.22849
     74       0.00000           0.351756            9.57177
     75       0.00000           0.364248            9.91168
     76       0.00000           0.367997           10.01371
     77       0.00000           0.378523           10.30013
     78       0.00000           0.382436           10.40663
     79       0.00000           0.394668           10.73945
     80       0.00000           0.396430           10.78740
     81       0.00000           0.423399           11.52129
     82       0.00000           0.431731           11.74799
     83       0.00000           0.437274           11.89883
     84       0.00000           0.447139           12.16727
     85       0.00000           0.454717           12.37347
     86       0.00000           0.456440           12.42037
     87       0.00000           0.468195           12.74024
     88       0.00000           0.485392           13.20819
     89       0.00000           0.503331           13.69634
     90       0.00000           0.515840           14.03671
     91       0.00000           0.518526           14.10981
     92       0.00000           0.539621           14.68385
     93       0.00000           0.550676           14.98466
     94       0.00000           0.565882           15.39842
     95       0.00000           0.586408           15.95698
     96       0.00000           0.602737           16.40132
     97       0.00000           0.613259           16.68762
     98       0.00000           0.622978           16.95209
     99       0.00000           0.652474           17.75471
    100       0.00000           0.685027           18.64055
    101       0.00000           0.719543           19.57976
    102       0.00000           0.724875           19.72485
    103       0.00000           0.749124           20.38469
    104       0.00000           0.758037           20.62723
    105       0.00000           0.787375           21.42557
    106       0.00000           0.793814           21.60077
    107       0.00000           0.804236           21.88436

  Highest occupied state (VBM) at     -2.59299476 eV
  | Occupation number:      1.00000000

  Lowest unoccupied state (CBM) at    -1.73894376 eV
  | Occupation number:      0.00000000

  Overall HOMO-LUMO gap:      0.85405100 eV.

  Total energy components:
  | Sum of eigenvalues            :        -258.83705108 Ha       -7043.31451986 eV
  | XC energy correction          :         -55.36947992 Ha       -1506.68020763 eV
  | XC potential correction       :          70.77829784 Ha        1925.97547670 eV
  | Free-atom electrostatic energy:        -214.15489709 Ha       -5827.45124740 eV
  | Hartree energy correction     :          -2.43820813 Ha         -66.34701879 eV
  | van der Waals energy corr.    :           0.00000000 Ha           0.00000000 eV
  | Entropy correction            :          -0.00010367 Ha          -0.00282095 eV
  | ---------------------------
  | Total energy                  :        -460.02133838 Ha      -12517.81751699 eV
  | Total energy, T -> 0          :        -460.02144205 Ha      -12517.82033794 eV  <-- do not rely on this value for anything but (periodic) metals
  | Electronic free energy        :        -460.02154572 Ha      -12517.82315889 eV

  Derived energy quantities:
  | Kinetic energy                :         457.40328095 Ha       12446.57654942 eV
  | Electrostatic energy          :        -862.05513941 Ha      -23457.71385878 eV
  | Energy correction for multipole
  | error in Hartree potential    :           0.00023448 Ha           0.00638059 eV
  | Sum of eigenvalues per atom                           :        -370.70076420 eV
  | Total energy (T->0) per atom                          :        -658.83264937 eV  <-- do not rely on this value for anything but (periodic) metals
  | Electronic free energy per atom                       :        -658.83279784 eV

  Self-consistency convergence accuracy:
  | Change of charge density      : 0.6965E+00
  | Change of sum of eigenvalues  : 0.6802E+02 eV
  | Change of total energy        : 0.3890E+01 eV

  End self-consistency iteration #     1       :  max(cpu_time)    wall_clock(cpu1)
  | Time for this iteration                    :        3.150 s           3.149 s
  | Charge density update                      :        1.042 s           1.042 s
  | Density mixing                             :        0.004 s           0.004 s
  | Hartree multipole update                   :        0.006 s           0.007 s
  | Hartree multipole summation                :        0.512 s           0.512 s
  | Integration                                :        1.491 s           1.491 s
  | Solution of K.-S. eqns.                    :        0.092 s           0.092 s
  | Total energy evaluation                    :        0.001 s           0.000 s
------------------------------------------------------------

------------------------------------------------------------
          Begin self-consistency iteration #    2

  Date     :  20150727, Time     :  115540.433
------------------------------------------------------------
  Evaluating new KS density.
  Integration grid: deviation in total charge (<rho> - N_e) =   9.947598E-14
  Pulay mixing of updated and previous charge densities.

  Evaluating partitioned Hartree potential by multipole expansion.
  | Analytical far-field extrapolation by fixed multipoles:
  | Hartree multipole sum: apparent total charge =  -0.551189E-05
  Summing up the Hartree potential.
  Time summed over all CPUs for potential: real work        4.061 s, elapsed        4.088 s
  | RMS charge density error from multipole expansion :   0.753027E-02

  Integrating Hamiltonian matrix: batch-based integration.
  Time summed over all CPUs for integration: real work       11.632 s, elapsed       11.888 s

  Updating Kohn-Sham eigenvalues, eigenvectors, occupation numbers, and Fermi level.
  Solving generalized eigenproblem
  Updating Kohn-Sham eigenvalues and eigenfunctions.
  Solving real generalised eigenvalue problem by standard LAPACK (fast)
  Determining occupation numbers for Kohn-Sham eigenstates.
  | Chemical potential (Fermi level) in eV                 : -.20393018E+01
  | Error in electron count due to remaining E_F inaccuracy: 0.00000000E+00
  | Maximum occupation number of highest empty state:  0.00E+00

  Highest occupied state (VBM) at     -2.03930175 eV
  | Occupation number:      1.00000000

  Lowest unoccupied state (CBM) at    -2.03930175 eV
  | Occupation number:      1.00000000

  Overall HOMO-LUMO gap:      0.00000000 eV.

  Total energy components:
  | Sum of eigenvalues            :        -252.74531857 Ha       -6877.55004418 eV
  | XC energy correction          :         -56.05399871 Ha       -1525.30691162 eV
  | XC potential correction       :          71.67013759 Ha        1950.24367123 eV
  | Free-atom electrostatic energy:        -214.15489709 Ha       -5827.45124740 eV
  | Hartree energy correction     :          -8.57316308 Ha        -233.28763700 eV
  | van der Waals energy corr.    :           0.00000000 Ha           0.00000000 eV
  | Entropy correction            :          -0.00010367 Ha          -0.00282095 eV
  | ---------------------------
  | Total energy                  :        -459.85723986 Ha      -12513.35216898 eV
  | Total energy, T -> 0          :        -459.85734353 Ha      -12513.35498993 eV  <-- do not rely on this value for anything but (periodic) metals
  | Electronic free energy        :        -459.85744720 Ha      -12513.35781088 eV

  Derived energy quantities:
  | Kinetic energy                :         460.84057087 Ha       12540.10996709 eV
  | Electrostatic energy          :        -864.64381202 Ha      -23528.15522445 eV
  | Energy correction for multipole
  | error in Hartree potential    :          -0.00017042 Ha          -0.00463745 eV
  | Sum of eigenvalues per atom                           :        -361.97631811 eV
  | Total energy (T->0) per atom                          :        -658.59763105 eV  <-- do not rely on this value for anything but (periodic) metals
  | Electronic free energy per atom                       :        -658.59777952 eV

  Self-consistency convergence accuracy:
  | Change of charge density      : 0.5302E+00
  | Change of sum of eigenvalues  : 0.1658E+03 eV
  | Change of total energy        : 0.4465E+01 eV

  End self-consistency iteration #     2       :  max(cpu_time)    wall_clock(cpu1)
  | Time for this iteration                    :        3.140 s           3.140 s
  | Charge density update                      :        1.034 s           1.035 s
  | Density mixing                             :        0.007 s           0.006 s
  | Hartree multipole update                   :        0.006 s           0.007 s
  | Hartree multipole summation                :        0.512 s           0.512 s
  | Integration                                :        1.489 s           1.488 s
  | Solution of K.-S. eqns.                    :        0.091 s           0.091 s
  | Total energy evaluation                    :        0.001 s           0.001 s
------------------------------------------------------------

------------------------------------------------------------
          Begin self-consistency iteration #    3

  Date     :  20150727, Time     :  115543.573
------------------------------------------------------------
  Evaluating new KS density.
  Integration grid: deviation in total charge (<rho> - N_e) =   2.131628E-14
  Pulay mixing of updated and previous charge densities.

  Evaluating partitioned Hartree potential by multipole expansion.
  | Analytical far-field extrapolation by fixed multipoles:
  | Hartree multipole sum: apparent total charge =  -0.630262E-05
  Summing up the Hartree potential.
  Time summed over all CPUs for potential: real work        4.061 s, elapsed        4.088 s
  | RMS charge density error from multipole expansion :   0.155268E-01

  Integrating Hamiltonian matrix: batch-based integration.
  Time summed over all CPUs for integration: real work       11.640 s, elapsed       11.887 s

  Updating Kohn-Sham eigenvalues, eigenvectors, occupation numbers, and Fermi level.
  Solving generalized eigenproblem
  Updating Kohn-Sham eigenvalues and eigenfunctions.
  Solving real generalised eigenvalue problem by standard LAPACK (fast)
  Determining occupation numbers for Kohn-Sham eigenstates.
  | Chemical potential (Fermi level) in eV                 : -.19609916E+01
  | Error in electron count due to remaining E_F inaccuracy: 0.00000000E+00
  | Maximum occupation number of highest empty state:  0.00E+00

  Highest occupied state (VBM) at     -1.96099160 eV
  | Occupation number:      1.00000000

  Lowest unoccupied state (CBM) at    -1.96099160 eV
  | Occupation number:      1.00000000

  Overall HOMO-LUMO gap:      0.00000000 eV.

  Total energy components:
  | Sum of eigenvalues            :        -253.00055932 Ha       -6884.49549834 eV
  | XC energy correction          :         -56.06331641 Ha       -1525.56045919 eV
  | XC potential correction       :          71.67216929 Ha        1950.29895652 eV
  | Free-atom electrostatic energy:        -214.15489709 Ha       -5827.45124740 eV
  | Hartree energy correction     :          -8.30815175 Ha        -226.07631162 eV
  | van der Waals energy corr.    :           0.00000000 Ha           0.00000000 eV
  | Entropy correction            :          -0.00010367 Ha          -0.00282095 eV
  | ---------------------------
  | Total energy                  :        -459.85475528 Ha      -12513.28456003 eV
  | Total energy, T -> 0          :        -459.85485895 Ha      -12513.28738098 eV  <-- do not rely on this value for anything but (periodic) metals
  | Electronic free energy        :        -459.85496261 Ha      -12513.29020193 eV

  Derived energy quantities:
  | Kinetic energy                :         458.68119730 Ha       12481.35042253 eV
  | Electrostatic energy          :        -862.47263616 Ha      -23469.07452338 eV
  | Energy correction for multipole
  | error in Hartree potential    :          -0.00620708 Ha          -0.16890312 eV
  | Sum of eigenvalues per atom                           :        -362.34186833 eV
  | Total energy (T->0) per atom                          :        -658.59407268 eV  <-- do not rely on this value for anything but (periodic) metals
  | Electronic free energy per atom                       :        -658.59422115 eV

  Self-consistency convergence accuracy:
  | Change of charge density      : 0.2551E+00
  | Change of sum of eigenvalues  : -.6945E+01 eV
  | Change of total energy        : 0.6761E-01 eV

  End self-consistency iteration #     3       :  max(cpu_time)    wall_clock(cpu1)
  | Time for this iteration                    :        3.137 s           3.137 s
  | Charge density update                      :        1.030 s           1.030 s
  | Density mixing                             :        0.008 s           0.008 s
  | Hartree multipole update                   :        0.006 s           0.006 s
  | Hartree multipole summation                :        0.512 s           0.512 s
  | Integration                                :        1.488 s           1.488 s
  | Solution of K.-S. eqns.                    :        0.092 s           0.091 s
  | Total energy evaluation                    :        0.000 s           0.001 s
------------------------------------------------------------

------------------------------------------------------------
          Begin self-consistency iteration #    4

  Date     :  20150727, Time     :  115546.710
------------------------------------------------------------
  Evaluating new KS density.
  Integration grid: deviation in total charge (<rho> - N_e) =   2.842171E-14
  Pulay mixing of updated and previous charge densities.

  Evaluating partitioned Hartree potential by multipole expansion.
  | Analytical far-field extrapolation by fixed multipoles:
  | Hartree multipole sum: apparent total charge =  -0.728985E-05
  Summing up the Hartree potential.
  Time summed over all CPUs for potential: real work        4.060 s, elapsed        4.087 s
  | RMS charge density error from multipole expansion :   0.187687E-01

  Integrating Hamiltonian matrix: batch-based integration.
  Time summed over all CPUs for integration: real work       11.644 s, elapsed       11.889 s

  Updating Kohn-Sham eigenvalues, eigenvectors, occupation numbers, and Fermi level.
  Solving generalized eigenproblem
  Updating Kohn-Sham eigenvalues and eigenfunctions.
  Solving real generalised eigenvalue problem by standard LAPACK (fast)
  Determining occupation numbers for Kohn-Sham eigenstates.
  | Chemical potential (Fermi level) in eV                 : -.18534652E+01
  | Error in electron count due to remaining E_F inaccuracy: -.17514878E-10
  | Maximum occupation number of highest empty state:  0.00E+00

  Highest occupied state (VBM) at     -6.38000373 eV
  | Occupation number:      2.00000000

  Lowest unoccupied state (CBM) at    -1.85346523 eV
  | Occupation number:      1.00000000

  Overall HOMO-LUMO gap:      4.52653851 eV.

  Total energy components:
  | Sum of eigenvalues            :        -251.83456371 Ha       -6852.76714339 eV
  | XC energy correction          :         -56.21910473 Ha       -1529.79967515 eV
  | XC potential correction       :          71.87287511 Ha        1955.76043976 eV
  | Free-atom electrostatic energy:        -214.15489709 Ha       -5827.45124740 eV
  | Hartree energy correction     :          -9.51348255 Ha        -258.87503166 eV
  | van der Waals energy corr.    :           0.00000000 Ha           0.00000000 eV
  | Entropy correction            :          -0.00010367 Ha          -0.00282095 eV
  | ---------------------------
  | Total energy                  :        -459.84917298 Ha      -12513.13265785 eV
  | Total energy, T -> 0          :        -459.84927664 Ha      -12513.13547880 eV  <-- do not rely on this value for anything but (periodic) metals
  | Electronic free energy        :        -459.84938031 Ha      -12513.13829975 eV

  Derived energy quantities:
  | Kinetic energy                :         458.79825681 Ha       12484.53577411 eV
  | Electrostatic energy          :        -862.42832506 Ha      -23467.86875681 eV
  | Energy correction for multipole
  | error in Hartree potential    :          -0.00796200 Ha          -0.21665703 eV
  | Sum of eigenvalues per atom                           :        -360.67195492 eV
  | Total energy (T->0) per atom                          :        -658.58607783 eV  <-- do not rely on this value for anything but (periodic) metals
  | Electronic free energy per atom                       :        -658.58622630 eV

  Self-consistency convergence accuracy:
  | Change of charge density      : 0.1124E+00
  | Change of sum of eigenvalues  : 0.3173E+02 eV
  | Change of total energy        : 0.1519E+00 eV

  End self-consistency iteration #     4       :  max(cpu_time)    wall_clock(cpu1)
  | Time for this iteration                    :        3.142 s           3.142 s
  | Charge density update                      :        1.032 s           1.032 s
  | Density mixing                             :        0.011 s           0.010 s
  | Hartree multipole update                   :        0.006 s           0.007 s
  | Hartree multipole summation                :        0.512 s           0.511 s
  | Integration                                :        1.489 s           1.489 s
  | Solution of K.-S. eqns.                    :        0.092 s           0.092 s
  | Total energy evaluation                    :        0.000 s           0.001 s
------------------------------------------------------------

------------------------------------------------------------
          Begin self-consistency iteration #    5

  Date     :  20150727, Time     :  115549.852
------------------------------------------------------------
  Evaluating new KS density.
  Integration grid: deviation in total charge (<rho> - N_e) =  -1.747225E-11
  Pulay mixing of updated and previous charge densities.

  Evaluating partitioned Hartree potential by multipole expansion.
  | Analytical far-field extrapolation by fixed multipoles:
  | Hartree multipole sum: apparent total charge =  -0.745040E-05
  Summing up the Hartree potential.
  Time summed over all CPUs for potential: real work        4.064 s, elapsed        4.087 s
  | RMS charge density error from multipole expansion :   0.196546E-01

  Integrating Hamiltonian matrix: batch-based integration.
  Time summed over all CPUs for integration: real work       11.645 s, elapsed       11.907 s

  Updating Kohn-Sham eigenvalues, eigenvectors, occupation numbers, and Fermi level.
  Solving generalized eigenproblem
  Updating Kohn-Sham eigenvalues and eigenfunctions.
  Solving real generalised eigenvalue problem by standard LAPACK (fast)
  Determining occupation numbers for Kohn-Sham eigenstates.
  | Chemical potential (Fermi level) in eV                 : -.18564973E+01
  | Error in electron count due to remaining E_F inaccuracy: 0.45936588E-10
  | Maximum occupation number of highest empty state:  0.00E+00

  Highest occupied state (VBM) at     -1.85649733 eV
  | Occupation number:      1.00000000

  Lowest unoccupied state (CBM) at    -1.09138662 eV
  | Occupation number:      0.00000000

  Overall HOMO-LUMO gap:      0.76511071 eV.

  Total energy components:
  | Sum of eigenvalues            :        -251.65754354 Ha       -6847.95017965 eV
  | XC energy correction          :         -56.24445389 Ha       -1530.48946079 eV
  | XC potential correction       :          71.90493442 Ha        1956.63281803 eV
  | Free-atom electrostatic energy:        -214.15489709 Ha       -5827.45124740 eV
  | Hartree energy correction     :          -9.69684544 Ha        -263.86458978 eV
  | van der Waals energy corr.    :           0.00000000 Ha           0.00000000 eV
  | Entropy correction            :          -0.00010367 Ha          -0.00282095 eV
  | ---------------------------
  | Total energy                  :        -459.84880555 Ha      -12513.12265959 eV
  | Total energy, T -> 0          :        -459.84890921 Ha      -12513.12548054 eV  <-- do not rely on this value for anything but (periodic) metals
  | Electronic free energy        :        -459.84901288 Ha      -12513.12830149 eV

  Derived energy quantities:
  | Kinetic energy                :         458.80384716 Ha       12484.68789522 eV
  | Electrostatic energy          :        -862.40819882 Ha      -23467.32109402 eV
  | Energy correction for multipole
  | error in Hartree potential    :          -0.00871778 Ha          -0.23722285 eV
  | Sum of eigenvalues per atom                           :        -360.41843051 eV
  | Total energy (T->0) per atom                          :        -658.58555161 eV  <-- do not rely on this value for anything but (periodic) metals
  | Electronic free energy per atom                       :        -658.58570008 eV

  Self-consistency convergence accuracy:
  | Change of charge density      : 0.3572E-01
  | Change of sum of eigenvalues  : 0.4817E+01 eV
  | Change of total energy        : 0.9998E-02 eV

  End self-consistency iteration #     5       :  max(cpu_time)    wall_clock(cpu1)
  | Time for this iteration                    :        3.143 s           3.142 s
  | Charge density update                      :        1.029 s           1.029 s
  | Density mixing                             :        0.012 s           0.013 s
  | Hartree multipole update                   :        0.006 s           0.006 s
  | Hartree multipole summation                :        0.512 s           0.512 s
  | Integration                                :        1.491 s           1.490 s
  | Solution of K.-S. eqns.                    :        0.091 s           0.091 s
  | Total energy evaluation                    :        0.001 s           0.000 s
------------------------------------------------------------

------------------------------------------------------------
          Begin self-consistency iteration #    6

  Date     :  20150727, Time     :  115552.995
------------------------------------------------------------
  Evaluating new KS density.
  Integration grid: deviation in total charge (<rho> - N_e) =   4.597212E-11
  Pulay mixing of updated and previous charge densities.

  Evaluating partitioned Hartree potential by multipole expansion.
  | Analytical far-field extrapolation by fixed multipoles:
  | Hartree multipole sum: apparent total charge =  -0.745207E-05
  Summing up the Hartree potential.
  Time summed over all CPUs for potential: real work        4.060 s, elapsed        4.087 s
  | RMS charge density error from multipole expansion :   0.198503E-01

  Integrating Hamiltonian matrix: batch-based integration.
  Time summed over all CPUs for integration: real work       11.642 s, elapsed       11.899 s

  Updating Kohn-Sham eigenvalues, eigenvectors, occupation numbers, and Fermi level.
  Solving generalized eigenproblem
  Updating Kohn-Sham eigenvalues and eigenfunctions.
  Solving real generalised eigenvalue problem by standard LAPACK (fast)
  Determining occupation numbers for Kohn-Sham eigenstates.
  | Chemical potential (Fermi level) in eV                 : -.18606033E+01
  | Error in electron count due to remaining E_F inaccuracy: 0.21316282E-12
  | Maximum occupation number of highest empty state:  0.00E+00

  Highest occupied state (VBM) at     -1.86060328 eV
  | Occupation number:      1.00000000

  Lowest unoccupied state (CBM) at    -1.09364243 eV
  | Occupation number:      0.00000000

  Overall HOMO-LUMO gap:      0.76696085 eV.

  Total energy components:
  | Sum of eigenvalues            :        -251.66904300 Ha       -6848.26309574 eV
  | XC energy correction          :         -56.24466946 Ha       -1530.49532679 eV
  | XC potential correction       :          71.90494650 Ha        1956.63314673 eV
  | Free-atom electrostatic energy:        -214.15489709 Ha       -5827.45124740 eV
  | Hartree energy correction     :          -9.68516306 Ha        -263.54669597 eV
  | van der Waals energy corr.    :           0.00000000 Ha           0.00000000 eV
  | Entropy correction            :          -0.00010367 Ha          -0.00282095 eV
  | ---------------------------
  | Total energy                  :        -459.84882611 Ha      -12513.12321917 eV
  | Total energy, T -> 0          :        -459.84892978 Ha      -12513.12604012 eV  <-- do not rely on this value for anything but (periodic) metals
  | Electronic free energy        :        -459.84903345 Ha      -12513.12886107 eV

  Derived energy quantities:
  | Kinetic energy                :         458.77814038 Ha       12483.98837795 eV
  | Electrostatic energy          :        -862.38229702 Ha      -23466.61627032 eV
  | Energy correction for multipole
  | error in Hartree potential    :          -0.00892742 Ha          -0.24292743 eV
  | Sum of eigenvalues per atom                           :        -360.43489978 eV
  | Total energy (T->0) per atom                          :        -658.58558106 eV  <-- do not rely on this value for anything but (periodic) metals
  | Electronic free energy per atom                       :        -658.58572953 eV

  Self-consistency convergence accuracy:
  | Change of charge density      : 0.8244E-02
  | Change of sum of eigenvalues  : -.3129E+00 eV
  | Change of total energy        : -.5596E-03 eV

  End self-consistency iteration #     6       :  max(cpu_time)    wall_clock(cpu1)
  | Time for this iteration                    :        3.144 s           3.143 s
  | Charge density update                      :        1.029 s           1.028 s
  | Density mixing                             :        0.014 s           0.014 s
  | Hartree multipole update                   :        0.006 s           0.007 s
  | Hartree multipole summation                :        0.512 s           0.511 s
  | Integration                                :        1.490 s           1.490 s
  | Solution of K.-S. eqns.                    :        0.092 s           0.092 s
  | Total energy evaluation                    :        0.001 s           0.000 s
------------------------------------------------------------

------------------------------------------------------------
          Begin self-consistency iteration #    7

  Date     :  20150727, Time     :  115556.138
------------------------------------------------------------
  Evaluating new KS density.
  Integration grid: deviation in total charge (<rho> - N_e) =   2.131628E-13
  Pulay mixing of updated and previous charge densities.

  Evaluating partitioned Hartree potential by multipole expansion.
  | Analytical far-field extrapolation by fixed multipoles:
  | Hartree multipole sum: apparent total charge =  -0.739787E-05
  Summing up the Hartree potential.
  Time summed over all CPUs for potential: real work        4.060 s, elapsed        4.087 s
  | RMS charge density error from multipole expansion :   0.199252E-01

  Integrating Hamiltonian matrix: batch-based integration.
  Time summed over all CPUs for integration: real work       11.639 s, elapsed       11.893 s

  Updating Kohn-Sham eigenvalues, eigenvectors, occupation numbers, and Fermi level.
  Solving generalized eigenproblem
  Updating Kohn-Sham eigenvalues and eigenfunctions.
  Solving real generalised eigenvalue problem by standard LAPACK (fast)
  Determining occupation numbers for Kohn-Sham eigenstates.
  | Chemical potential (Fermi level) in eV                 : -.18791709E+01
  | Error in electron count due to remaining E_F inaccuracy: 0.67537087E-10
  | Maximum occupation number of highest empty state:  0.00E+00

  Highest occupied state (VBM) at     -1.87917092 eV
  | Occupation number:      1.00000000

  Lowest unoccupied state (CBM) at    -1.10719203 eV
  | Occupation number:      0.00000000

  Overall HOMO-LUMO gap:      0.77197889 eV.

  Total energy components:
  | Sum of eigenvalues            :        -251.74081856 Ha       -6850.21620815 eV
  | XC energy correction          :         -56.23716012 Ha       -1530.29098726 eV
  | XC potential correction       :          71.89482291 Ha        1956.35766963 eV
  | Free-atom electrostatic energy:        -214.15489709 Ha       -5827.45124740 eV
  | Hartree energy correction     :          -9.61075554 Ha        -261.52196429 eV
  | van der Waals energy corr.    :           0.00000000 Ha           0.00000000 eV
  | Entropy correction            :          -0.00010367 Ha          -0.00282095 eV
  | ---------------------------
  | Total energy                  :        -459.84880841 Ha      -12513.12273747 eV
  | Total energy, T -> 0          :        -459.84891208 Ha      -12513.12555841 eV  <-- do not rely on this value for anything but (periodic) metals
  | Electronic free energy        :        -459.84901574 Ha      -12513.12837936 eV

  Derived energy quantities:
  | Kinetic energy                :         458.81406166 Ha       12484.96584585 eV
  | Electrostatic energy          :        -862.42570995 Ha      -23467.79759606 eV
  | Energy correction for multipole
  | error in Hartree potential    :          -0.00921889 Ha          -0.25085869 eV
  | Sum of eigenvalues per atom                           :        -360.53769517 eV
  | Total energy (T->0) per atom                          :        -658.58555571 eV  <-- do not rely on this value for anything but (periodic) metals
  | Electronic free energy per atom                       :        -658.58570418 eV

  Self-consistency convergence accuracy:
  | Change of charge density      : 0.6727E-02
  | Change of sum of eigenvalues  : -.1953E+01 eV
  | Change of total energy        : 0.4817E-03 eV

  End self-consistency iteration #     7       :  max(cpu_time)    wall_clock(cpu1)
  | Time for this iteration                    :        3.145 s           3.145 s
  | Charge density update                      :        1.030 s           1.030 s
  | Density mixing                             :        0.016 s           0.016 s
  | Hartree multipole update                   :        0.006 s           0.006 s
  | Hartree multipole summation                :        0.512 s           0.512 s
  | Integration                                :        1.489 s           1.489 s
  | Solution of K.-S. eqns.                    :        0.091 s           0.091 s
  | Total energy evaluation                    :        0.000 s           0.001 s
------------------------------------------------------------

------------------------------------------------------------
          Begin self-consistency iteration #    8

  Date     :  20150727, Time     :  115559.283
------------------------------------------------------------
  Evaluating new KS density.
  Integration grid: deviation in total charge (<rho> - N_e) =   6.760814E-11
  Pulay mixing of updated and previous charge densities.

  Evaluating partitioned Hartree potential by multipole expansion.
  | Analytical far-field extrapolation by fixed multipoles:
  | Hartree multipole sum: apparent total charge =  -0.736962E-05
  Summing up the Hartree potential.
  Time summed over all CPUs for potential: real work        4.066 s, elapsed        4.087 s
  | RMS charge density error from multipole expansion :   0.199546E-01

  Integrating Hamiltonian matrix: batch-based integration.
  Time summed over all CPUs for integration: real work       11.669 s, elapsed       12.024 s

  Updating Kohn-Sham eigenvalues, eigenvectors, occupation numbers, and Fermi level.
  Solving generalized eigenproblem
  Updating Kohn-Sham eigenvalues and eigenfunctions.
  Solving real generalised eigenvalue problem by standard LAPACK (fast)
  Determining occupation numbers for Kohn-Sham eigenstates.
  | Chemical potential (Fermi level) in eV                 : -.18800932E+01
  | Error in electron count due to remaining E_F inaccuracy: 0.00000000E+00
  | Maximum occupation number of highest empty state:  0.00E+00

  Highest occupied state (VBM) at     -1.88009317 eV
  | Occupation number:      1.00000000

  Lowest unoccupied state (CBM) at    -1.88009317 eV
  | Occupation number:      1.00000000

  Overall HOMO-LUMO gap:      0.00000000 eV.

  Total energy components:
  | Sum of eigenvalues            :        -251.76579433 Ha       -6850.89583340 eV
  | XC energy correction          :         -56.23526854 Ha       -1530.23951483 eV
  | XC potential correction       :          71.89227777 Ha        1956.28841300 eV
  | Free-atom electrostatic energy:        -214.15489709 Ha       -5827.45124740 eV
  | Hartree energy correction     :          -9.58512496 Ha        -260.82452086 eV
  | van der Waals energy corr.    :           0.00000000 Ha           0.00000000 eV
  | Entropy correction            :          -0.00010367 Ha          -0.00282095 eV
  | ---------------------------
  | Total energy                  :        -459.84880716 Ha      -12513.12270349 eV
  | Total energy, T -> 0          :        -459.84891083 Ha      -12513.12552444 eV  <-- do not rely on this value for anything but (periodic) metals
  | Electronic free energy        :        -459.84901450 Ha      -12513.12834538 eV

  Derived energy quantities:
  | Kinetic energy                :         458.82556296 Ha       12485.27881202 eV
  | Electrostatic energy          :        -862.43910157 Ha      -23468.16200068 eV
  | Energy correction for multipole
  | error in Hartree potential    :          -0.00931355 Ha          -0.25343454 eV
  | Sum of eigenvalues per atom                           :        -360.57346492 eV
  | Total energy (T->0) per atom                          :        -658.58555392 eV  <-- do not rely on this value for anything but (periodic) metals
  | Electronic free energy per atom                       :        -658.58570239 eV

  Self-consistency convergence accuracy:
  | Change of charge density      : 0.2071E-02
  | Change of sum of eigenvalues  : -.6796E+00 eV
  | Change of total energy        : 0.3398E-04 eV

  End self-consistency iteration #     8       :  max(cpu_time)    wall_clock(cpu1)
  | Time for this iteration                    :        3.169 s           3.168 s
  | Charge density update                      :        1.035 s           1.034 s
  | Density mixing                             :        0.017 s           0.018 s
  | Hartree multipole update                   :        0.006 s           0.006 s
  | Hartree multipole summation                :        0.512 s           0.512 s
[...]
   Hellmann-Feynman + Multipole  : -.583442E+00 -.102186E+01 0.471651E+00
   Pulay + GGA                   : 0.432841E-01 0.112829E+00 -.730822E-01
   Van der Waals               : -.410766E-03 -.486271E-02 0.503435E-03
   ----------------------------------------------------------------
   Total forces(  16)            : -.540569E+00 -.913894E+00 0.399073E+00
  atom #   17
   Hellmann-Feynman + Multipole  : 0.136892E+01 -.151645E+02 0.163848E+01
   Pulay + GGA                   : -.404380E+00 0.151985E+02 -.296673E+01
   Van der Waals               : -.596594E-03 -.815626E-02 -.302520E-02
   ----------------------------------------------------------------
   Total forces(  17)            : 0.963940E+00 0.258362E-01 -.133128E+01
  atom #   18
   Hellmann-Feynman + Multipole  : -.271697E+00 0.490361E+00 0.265179E+00
   Pulay + GGA                   : -.705680E-01 0.889350E-01 0.837416E-01
   Van der Waals               : 0.377153E-02 -.181208E-02 -.474691E-02
   ----------------------------------------------------------------
   Total forces(  18)            : -.338494E+00 0.577484E+00 0.344173E+00
  atom #   19
   Hellmann-Feynman + Multipole  : -.773475E+00 -.773967E+00 0.124323E+01
   Pulay + GGA                   : 0.349141E-01 0.635542E-01 -.696554E-01
   Van der Waals               : 0.444942E-03 -.508810E-02 -.219879E-03
   ----------------------------------------------------------------
   Total forces(  19)            : -.738116E+00 -.715501E+00 0.117335E+01
  Timings for vdw_correction_hirshfeld (Tkatchenko-Scheffler 2009):
  | CPU time:        8.551 s, Wall clock time:        8.551 s.
  Removing unitary transformations (pure translations, rotations) from forces on atoms.
  Atomic forces before filtering:
  | Net force on center of mass :  0.734049E-02 0.219953E-02 -.915570E-02 eV/A
  | Net torque on center of mass:  0.262549E-02 0.213243E-01 -.201152E-01 eV
  Atomic forces after filtering:
  | Net force on center of mass :  -.892031E-16 -.356812E-15 -.356812E-15 eV/A
  | Net torque on center of mass:  0.604214E-14 0.188817E-15 0.358752E-14 eV
 
  Energy and forces in a compact form:
  | Total energy uncorrected      :         -0.125132438551697E+05 eV
  | Total energy corrected        :         -0.125132466761176E+05 eV  <-- do not rely on this value for anything but (periodic) metals
  | Electronic free energy        :         -0.125132494970656E+05 eV
  Total atomic forces (unitary forces cleaned) [eV/Ang]:
  |   1         -0.110056147929067E+01          0.117772650555052E+01         -0.114131757729006E+01
  |   2          0.373256772213211E+00         -0.923355928211424E+00          0.295705154885886E+00
  |   3          0.428261532683961E+00         -0.119999156395472E+00         -0.416269860360206E-01
  |   4          0.352879921569487E-01         -0.962151116855937E-01          0.385607514088599E+00
  |   5         -0.322747611496154E+00         -0.152526387669733E+01         -0.931677701945108E+00
  |   6         -0.123594740060907E+00          0.972152471258363E+00          0.100641261384838E+01
  |   7          0.296715759198671E+00          0.553477028559079E+00          0.273089438790047E+00
  |   8          0.337543002121812E+00         -0.760060528485795E+00          0.248838578125638E+01
  |   9          0.594075526936607E-01          0.247798440065920E+00          0.182949082140352E+00
  |  10         -0.318856435796072E+00          0.343539113178426E+00         -0.257647341607777E+01
  |  11          0.152055304310401E+01         -0.186789915930982E+00          0.791771953842016E+00
  |  12         -0.103752446112221E+00         -0.196190224056147E+00         -0.497109055128352E+00
  |  13         -0.115031519972665E+01          0.608704730897533E+00         -0.251675522978939E+00
  |  14          0.467629966580423E+00          0.125706168416772E+01         -0.765474798073601E+00
  |  15          0.259189954869004E+00         -0.325294825913325E+00          0.195432214362054E+00
  |  16         -0.541381778949116E+00         -0.913948843444567E+00          0.399613809119584E+00
  |  17          0.962665964966996E+00          0.254501050652624E-01         -0.133122643550266E+01
  |  18         -0.340028140230073E+00          0.577014487960432E+00          0.344090213654253E+00
  |  19         -0.739273708926829E+00         -0.715806155882619E+00          0.117352371704496E+01
 
  ------------------------------------ 
  Start decomposition of the XC Energy 
  ------------------------------------ 
  Hartree-Fock part   :          0.000000000 Ha              0.000000000 eV
  ------------------------------------ 
  X Energy            :        -54.242603831 Ha          -1476.016349125 eV
  C Energy GGA        :         -1.993492613 Ha            -54.245693982 eV
  Total XC Energy     :        -56.236096444 Ha          -1530.262043107 eV
  LDA X and C from self-consistent density 
  X Energy LDA        :        -48.910371895 Ha          -1330.918935684 eV
  C Energy LDA        :         -4.002536395 Ha           -108.914556829 eV
  ------------------------------------ 
  End decomposition of the XC Energy 
  ------------------------------------ 
  Performing Hirshfeld analysis of fragment charges and moments.
  ----------------------------------------------------------------------
  | Atom     1: O
  |   Hirshfeld charge        :     -0.15566612
  |   Free atom volume        :     23.95238533
  |   Hirshfeld volume        :     21.04855588
  |   Hirshfeld dipole vector :      0.00377900       0.02727485       0.02084656
  |   Hirshfeld dipole moment :      0.03453660
  |   Hirshfeld second moments:      0.08542571      -0.00778467      -0.00767416
  |                                 -0.00778467       0.05345584      -0.02376383
  |                                 -0.00767416      -0.02376383       0.06770527
  ----------------------------------------------------------------------
  | Atom     2: H
  |   Hirshfeld charge        :      0.11993564
  |   Free atom volume        :     10.44207651
  |   Hirshfeld volume        :      8.50970997
  |   Hirshfeld dipole vector :     -0.00871825       0.01309486      -0.00579764
  |   Hirshfeld dipole moment :      0.01676592
  |   Hirshfeld second moments:      0.06697481       0.02332078      -0.00655480
  |                                  0.02332078       0.04057194       0.01514276
  |                                 -0.00655480       0.01514276       0.08434487
  ----------------------------------------------------------------------
  | Atom     3: H
  |   Hirshfeld charge        :      0.10105046
  |   Free atom volume        :     10.44207651
  |   Hirshfeld volume        :      9.15006766
  |   Hirshfeld dipole vector :      0.01448060       0.00240560       0.00141166
  |   Hirshfeld dipole moment :      0.01474677
  |   Hirshfeld second moments:      0.02285781      -0.02052350      -0.00362319
  |                                 -0.02052350       0.06496377       0.00182723
  |                                 -0.00362319       0.00182723       0.06568986
  ----------------------------------------------------------------------
  | Atom     4: H
  |   Hirshfeld charge        :      0.10972303
  |   Free atom volume        :     10.44207651
  |   Hirshfeld volume        :      8.60739644
  |   Hirshfeld dipole vector :     -0.02115120      -0.00187847       0.01858823
  |   Hirshfeld dipole moment :      0.02822099
  |   Hirshfeld second moments:      0.08132353       0.00505144       0.00813816
  |                                  0.00505144       0.08095533       0.00470001
  |                                  0.00813816       0.00470001       0.02431413
  ----------------------------------------------------------------------
  | Atom     5: O
  |   Hirshfeld charge        :     -0.21502238
  |   Free atom volume        :     23.95238533
  |   Hirshfeld volume        :     21.53927618
  |   Hirshfeld dipole vector :     -0.03095751       0.02305792      -0.00554353
  |   Hirshfeld dipole moment :      0.03899700
  |   Hirshfeld second moments:      0.03480845       0.04689865      -0.01237346
  |                                  0.04689865       0.04861852       0.01810184
  |                                 -0.01237346       0.01810184       0.06539401
  ----------------------------------------------------------------------
  | Atom     6: H
  |   Hirshfeld charge        :      0.13031935
  |   Free atom volume        :     10.44207651
  |   Hirshfeld volume        :      9.76412665
  |   Hirshfeld dipole vector :      0.00323446       0.05897369       0.04520921
  |   Hirshfeld dipole moment :      0.07437897
  |   Hirshfeld second moments:      0.03759569       0.00255012      -0.01209294
  |                                  0.00255012       0.04185351      -0.00641434
  |                                 -0.01209294      -0.00641434       0.07362643
  ----------------------------------------------------------------------
  | Atom     7: H
  |   Hirshfeld charge        :      0.14972796
  |   Free atom volume        :     10.44207651
  |   Hirshfeld volume        :      8.43135565
  |   Hirshfeld dipole vector :     -0.08054909      -0.04982877       0.01644348
  |   Hirshfeld dipole moment :      0.09613247
  |   Hirshfeld second moments:      0.06422711       0.01281790       0.00058382
  |                                  0.01281790       0.08515426       0.01128383
  |                                  0.00058382       0.01128383       0.09064190
  ----------------------------------------------------------------------
  | Atom     8: O
  |   Hirshfeld charge        :     -0.20625559
  |   Free atom volume        :     23.95238533
  |   Hirshfeld volume        :     21.19200984
  |   Hirshfeld dipole vector :      0.02863269       0.00108222      -0.01424664
  |   Hirshfeld dipole moment :      0.03199951
  |   Hirshfeld second moments:      0.01955177      -0.00035455       0.02895342
  |                                 -0.00035455       0.07129568       0.00426864
  |                                  0.02895342       0.00426864       0.08398466
  ----------------------------------------------------------------------
  | Atom     9: H
  |   Hirshfeld charge        :      0.10708963
  |   Free atom volume        :     10.44207651
  |   Hirshfeld volume        :      8.98825309
  |   Hirshfeld dipole vector :      0.01351488       0.03100100       0.01374675
  |   Hirshfeld dipole moment :      0.03650598
  |   Hirshfeld second moments:      0.04385446      -0.02116704       0.00314393
  |                                 -0.02116704       0.05025810      -0.01643966
  |                                  0.00314393      -0.01643966       0.07299114
  ----------------------------------------------------------------------
  | Atom    10: H
  |   Hirshfeld charge        :      0.14081904
  |   Free atom volume        :     10.44207651
  |   Hirshfeld volume        :      8.63098116
  |   Hirshfeld dipole vector :     -0.01651150       0.00691070      -0.08986589
  |   Hirshfeld dipole moment :      0.09163114
  |   Hirshfeld second moments:      0.06809980      -0.00105724       0.00891741
  |                                 -0.00105724       0.09218932       0.00635076
  |                                  0.00891741       0.00635076       0.07180947
  ----------------------------------------------------------------------
  | Atom    11: O
  |   Hirshfeld charge        :     -0.23612405
  |   Free atom volume        :     23.95238533
  |   Hirshfeld volume        :     23.46363032
  |   Hirshfeld dipole vector :     -0.01642790      -0.03748157       0.02921274
  |   Hirshfeld dipole moment :      0.05028049
  |   Hirshfeld second moments:      0.03961501      -0.02181502       0.00787767
  |                                 -0.02181502       0.00340861       0.04382138
  |                                  0.00787767       0.04382138      -0.02878135
  ----------------------------------------------------------------------
  | Atom    12: H
  |   Hirshfeld charge        :      0.04397686
  |   Free atom volume        :     10.44207651
  |   Hirshfeld volume        :     13.66793024
  |   Hirshfeld dipole vector :     -0.02153550      -0.00780939       0.00746176
  |   Hirshfeld dipole moment :      0.02409236
  |   Hirshfeld second moments:      0.00973607      -0.03093580      -0.00842775
  |                                 -0.03093580      -0.03845958      -0.00553825
  |                                 -0.00842775      -0.00553825      -0.07880563
  ----------------------------------------------------------------------
  | Atom    13: H
  |   Hirshfeld charge        :      0.10169554
  |   Free atom volume        :     10.44207651
  |   Hirshfeld volume        :     11.78930205
  |   Hirshfeld dipole vector :      0.04555770      -0.05039483      -0.00555073
  |   Hirshfeld dipole moment :      0.06816124
  |   Hirshfeld second moments:      0.02521004      -0.00152773      -0.00522822
  |                                 -0.00152773       0.01680905       0.02233019
  |                                 -0.00522822       0.02233019       0.00175843
  ----------------------------------------------------------------------
  | Atom    14: O
  |   Hirshfeld charge        :     -0.21133190
  |   Free atom volume        :     23.95238533
  |   Hirshfeld volume        :     22.04521053
  |   Hirshfeld dipole vector :     -0.01117402      -0.00773684       0.00831019
  |   Hirshfeld dipole moment :      0.01593037
  |   Hirshfeld second moments:      0.03265866       0.00338798       0.00620783
  |                                  0.00338798       0.05761508      -0.01990387
  |                                  0.00620783      -0.01990387       0.02653661
  ----------------------------------------------------------------------
  | Atom    15: H
  |   Hirshfeld charge        :      0.06479211
  |   Free atom volume        :     10.44207651
  |   Hirshfeld volume        :     12.16427463
  |   Hirshfeld dipole vector :     -0.00313320      -0.02326851       0.00986659
  |   Hirshfeld dipole moment :      0.02546743
  |   Hirshfeld second moments:     -0.03722666       0.00210958      -0.01645123
  |                                  0.00210958       0.03588679       0.00457739
  |                                 -0.01645123       0.00457739      -0.01243123
  ----------------------------------------------------------------------
  | Atom    16: H
  |   Hirshfeld charge        :      0.09973900
  |   Free atom volume        :     10.44207651
  |   Hirshfeld volume        :     11.43378401
  |   Hirshfeld dipole vector :     -0.00226690       0.05372338      -0.02264251
  |   Hirshfeld dipole moment :      0.05834401
  |   Hirshfeld second moments:      0.01283265      -0.00501089       0.00776510
  |                                 -0.00501089       0.02604708      -0.00457272
  |                                  0.00776510      -0.00457272       0.01983457
  ----------------------------------------------------------------------
  | Atom    17: O
  |   Hirshfeld charge        :     -0.33870921
  |   Free atom volume        :     23.95238533
  |   Hirshfeld volume        :     23.58704695
  |   Hirshfeld dipole vector :     -0.00796557       0.06731252      -0.01460655
  |   Hirshfeld dipole moment :      0.06933814
  |   Hirshfeld second moments:     -0.04640842      -0.02011649      -0.06176424
  |                                 -0.02011649      -0.02482366       0.01156857
  |                                 -0.06176424       0.01156857      -0.00240772
  ----------------------------------------------------------------------
  | Atom    18: H
  |   Hirshfeld charge        :      0.11566642
  |   Free atom volume        :     10.44207651
  |   Hirshfeld volume        :      7.86951317
  |   Hirshfeld dipole vector :     -0.06170009       0.08453613       0.06082935
  |   Hirshfeld dipole moment :      0.12105151
  |   Hirshfeld second moments:      0.07540116      -0.00084867      -0.01901813
  |                                 -0.00084867       0.07828215      -0.00299682
  |                                 -0.01901813      -0.00299682       0.09486639
  ----------------------------------------------------------------------
  | Atom    19: H
  |   Hirshfeld charge        :      0.07855905
  |   Free atom volume        :     10.44207651
  |   Hirshfeld volume        :      9.41656548
  |   Hirshfeld dipole vector :      0.01230852       0.03810089      -0.04290155
  |   Hirshfeld dipole moment :      0.05868322
  |   Hirshfeld second moments:      0.03244466      -0.01688686       0.00009297
  |                                 -0.01688686       0.06056618       0.01836490
  |                                  0.00009297       0.01836490       0.03243059
  ----------------------------------------------------------------------


------------------------------------------------------------------------------
  Final output of selected total energy values:

  The following output summarizes some interesting total energy values
  at the end of a run (AFTER all relaxation, molecular dynamics, etc.).

  | Total energy of the DFT / Hartree-Fock s.c.f. calculation      :         -12513.243855170 eV
  | Final zero-broadening corrected energy (caution - metals only) :         -12513.246676118 eV
  | For reference only, the value of 1 Hartree used in FHI-aims is :             27.211384500 eV

  Before relying on these values, please be sure to understand exactly which
  total energy value is referred to by a given number. Different objects may
  all carry the same name 'total energy'. Definitions:

  Total energy of the DFT / Hartree-Fock s.c.f. calculation:
  | Note that this energy does not include ANY quantities calculated after the
  | s.c.f. cycle, in particular not ANY RPA, MP2, etc. many-body perturbation terms.

  Final zero-broadening corrected energy:
  | For metallic systems only, a broadening of the occupation numbers at the Fermi
  | level can be extrapolated back to zero broadening by an electron-gas inspired
  | formula. For all systems that are not real metals, this value can be
  | meaningless and should be avoided.

------------------------------------------------------------------------------

------------------------------------------------------------
          Leaving FHI-aims.
          Date     :  20150727, Time     :  115634.115

          Computational steps:
          | Number of self-consistency cycles          :           16

          Detailed time accounting                     :  max(cpu_time)    wall_clock(cpu1)
          | Total time                                 :       60.453 s          60.492 s
          | Preparation time                           :        0.170 s           0.499 s
          | Grid partitioning                          :        0.179 s           0.179 s
          | Preloading free-atom quantities on grid    :        0.014 s           0.013 s
          | Free-atom superposition energy             :        0.096 s           0.097 s
          | Total time for integrations                :       26.167 s          26.166 s
          | Total time for solution of K.-S. equations :        1.788 s           1.787 s
          | Total time for density & force components  :       21.043 s          21.043 s
          | Total time for mixing                      :        0.261 s           0.261 s
          | Total time for Hartree multipole update    :        0.099 s           0.103 s
          | Total time for Hartree multipole sum       :        9.889 s           9.887 s
          | Total time for total energy evaluation     :        0.011 s           0.007 s
          | Total time for scaled ZORA corrections     :        0.000 s           0.000 s
          | Total time for TS (2009) vdW correction    :        0.080 s           0.080 s

          Have a nice day.
------------------------------------------------------------
