  MPI-parallelism will be employed.
------------------------------------------------------------
          Invoking FHI-aims ...
          Version 081213
          Compiled on 2013/08/29 at 17:41:06 on host generoso.

          When using FHI-aims, please cite the following reference:

          Volker Blum, Ralf Gehrke, Felix Hanke, Paula Havu,
          Ville Havu, Xinguo Ren, Karsten Reuter, and Matthias Scheffler,
          'Ab Initio Molecular Simulations with Numeric Atom-Centered Orbitals: FHI-aims',
          Computer Physics Communications 180, 2175-2196 (2009)

          For any questions about FHI-aims, please visit the aimsclub website
          with its forums and wiki. Contributions to both the forums and the
          wiki are warmly encouraged - they are for you, and everyone is welcome there.

------------------------------------------------------------

  Date     :  20150727, Time     :  124733.152
  Time zero on CPU 1             :   0.409930000000000E-01  s.
  Internal wall clock time zero  :           207233253.152  s.

  Using        8 parallel tasks.
  Task        0 on host gen59 reporting.
  Task        1 on host gen59 reporting.
  Task        2 on host gen59 reporting.
  Task        3 on host gen59 reporting.
  Task        4 on host gen59 reporting.
  Task        5 on host gen59 reporting.
  Task        6 on host gen59 reporting.
  Task        7 on host gen59 reporting.

  Performing system and environment tests:
  | Environment variable OMP_NUM_THREADS correctly set to 1.
  | Checking for scalapack...
  | No scalapack compiled in.

  Obtaining array dimensions for all initial allocations:
  
  -----------------------------------------------------------------------
  Parsing control.in (first pass over file, find array dimensions only).
  The contents of control.in will be repeated verbatim below
  unless switched off by setting 'verbatim_writeout .false.' .
  in the first line of control.in .
  -----------------------------------------------------------------------
  
  #########################################################################################
  #
  #  Volker Blum, FHI 2008 : Test run input file control.in
  #
  #########################################################################################
  #
  #  Physical model
  #
    xc                 rpbe
    spin               none
    relativistic       atomic_zora scalar
    charge             0.
   vdw_correction_hirshfeld
  #
  #  SCF convergence
  #
    occupation_type    gaussian 0.01
    mixer              pulay
      n_max_pulay        10
      charge_mix_param   0.1
    sc_accuracy_rho    5E-5
    sc_accuracy_eev    5E-3
    sc_accuracy_etot   5E-6
    sc_iter_limit      3000
  #
  #  Eigenvalue solver
  #
    KS_method          lapack
      empty_states       8
      basis_threshold    0.e-5
  #
  #  Efficiency
  #
  #   all previous settings are now default, except stratmann still
  #   undecided. Continue to handle stratmann with care, if at all.
  #
  #  partition_type stratmann
    partition_type rho_r2
  #  hartree_partition_type stratmann
  #
  #  Oprions for large clusters (100's of atoms: memory saving / better scaling)
  #
  # for periodic systems:
  #
    density_update_method orbital
    packed_matrix_format none
  #  k_grid 6 6 6
  #  output k_eigenvalue 1
  #  distributed_spline_storage .true.
  #
  #  Relaxation
  #
  #  relax_geometry   bfgs 5.e-3
    sc_accuracy_forces 5.E-4
    final_forces_cleaned .true.
  #
  #  Output options
  #
  #  output mulliken
    output Hirshfeld
  #  output dipole
  
  #harmonic_length_scale 0.001
  
  ################################################################################
  #
  #  FHI-aims code project
  #  VB, Fritz-Haber Institut, 2007
  #
  #  Suggested "safe" defaults for H atom (to be pasted into control.in file)
  #  Basis constructed for a non-relativistic H2 molecule using the
  #  PW-LDA functional.
  #
  ################################################################################
    species        H
  #     global species definitions
      nucleus             1
      cut_pot             4.0  2.0  1.0
      cut_free_atom       finite 8.0
      logarithmic         0.00010000 100.00  1.0123
      basis_dep_cutoff    1d-4  # 1d-4 is safe default - please check 5d-4 if you wish!
      radial_base         24 7.0
      radial_multiplier   2
      angular_grids       specified
        division   0.2783  110
        division   0.3822  194
        division   0.5626  302
  #      division   0.5922  434
  #      division   0.6227  590
  #      division   0.7206  770
        outer_grid  302
      l_hartree           4
  ################################################################################
  #
  #  Definition of "minimal" basis
  #
  ################################################################################
  #     valence basis states
      valence      1  s   1.
  #     ion occupancy
      ion_occ      1  s   0.5
  ################################################################################
  #
  #  Suggested additional basis functions. For production calculations,
  #  uncomment them one after another (the most important basis functions are
  #  listed first).
  #
  ################################################################################
  #  "First tier" - improvements: -1014.90 meV to -62.69 meV
       hydro 2 s 2.1
       hydro 2 p 3.5
  #  "Second tier" - improvements: -12.89 meV to -1.83 meV
       hydro 1 s 0.85
       hydro 2 p 3.7
       hydro 2 s 1.2
       hydro 3 d 7
  #  "Third tier" - improvements: -0.25 meV to -0.12 meV
  #     hydro 4 f 11.2
  #     hydro 3 p 4.8
  #     hydro 4 d 9
  #     hydro 3 s 3.2
  
  ################################################################################
  #
  #  FHI-aims code project
  #  VB, Fritz-Haber Institut, 2007
  #
  #  Suggested "safe" defaults for O atom (to be pasted into control.in file)
  #  All values have been tested for a non-relativistic, non-spinpolarized O2
  #  molecule using the PW-LDA functional. Validity for PBE is expected.
  #
  #  Constructed for dimers: 1.0 A, 1.208 A, 1.5 A, 2.0 A, 3.0 A
  #
  ################################################################################
    species        O
  #     global species definitions
      nucleus             8
      mass                15.9994
      l_hartree           4
      cut_pot             4.0  2.0  1.0
      cut_free_atom       finite 8.0
      basis_dep_cutoff    1d-4  # 1d-4 is safe default - please check 5d-4 if you wish!
      logarithmic         0.00010000 100.00  1.0123
      radial_base         36 7.0
      radial_multiplier   2
       angular_grids specified
        division   0.4087  110
        division   0.5181  194
        division   0.6184  302
  #      division   0.7315  434
  #      division   0.7934  590
  #      division   0.9656  770
  #      division   1.4041  974
  #      outer_grid 974
        outer_grid 302
  ################################################################################
  #
  #  Definition of "minimal" basis
  #
  ################################################################################
  #     valence basis states
      valence      2  s   2.
      valence      2  p   4.
  #     ion occupancy
      ion_occ      2  s   1.
      ion_occ      2  p   3.
  ################################################################################
  #
  #  Suggested additional basis functions. For production calculations,
  #  uncomment them one after another (the most important basis functions are
  #  listed first).
  #
  ################################################################################
  #  "First tier" - improvements: -699.05 meV to -159.38 meV
       hydro 2 p 1.8
       hydro 3 d 7.6
       hydro 3 s 6.4
  #  "Second tier" - improvements: -49.91 meV to -5.39 meV
       hydro 4 f 11.6
       hydro 3 p 6.2
       hydro 3 d 5.6
       hydro 5 g 17.6
       hydro 1 s 0.75
  #  "Third tier" - improvements: -2.83 meV to -0.50 meV
  #     ionic 2 p auto
  #     hydro 4 f 10.8
  #     hydro 4 d 4.7
  #     hydro 2 s 6.8
  #  "Fourth tier" - improvements: -0.40 meV to -0.12 meV
  #     hydro 3 p 5
  #     hydro 3 s 3.3
  #     hydro 5 g 15.6
  #     hydro 4 f 17.6
  #     hydro 4 d 14
  # Further basis functions - -0.08 meV and below
  #     hydro 3 s 2.1
  #     hydro 4 d 11.6
  #     hydro 3 p 16
  #     hydro 2 s 17.2
  
  
  -----------------------------------------------------------------------
  Completed first pass over input file control.in .
  -----------------------------------------------------------------------
  
  
  -----------------------------------------------------------------------
  Parsing geometry.in (first pass over file, find array dimensions only).
  The contents of geometry.in will be repeated verbatim below
  unless switched off by setting 'verbatim_writeout .false.' .
  in the first line of geometry.in .
  -----------------------------------------------------------------------
  
  atom      -4.053030000      0.065001000     -1.525160000  O
  atom      -4.566710000      0.974813000     -1.912820000  H
  atom      -3.067820000      0.330172000     -1.477310000  H
  atom      -4.370360000     -0.049164000     -0.572274000  H
  atom      -5.293160000      2.192130000     -2.328800000  O
  atom      -4.829300000      2.988660000     -1.973850000  H
  atom      -5.428570000      2.328640000     -3.235170000  H
  atom      -3.818880000      2.024990000      2.187990000  O
  atom      -3.690880000      1.961360000      3.202150000  H
  atom      -4.546490000      2.751300000      2.045370000  H
  atom      -1.975360000      2.858040000      0.453140000  O
  atom      -1.223550000      3.375850000      0.786238000  H
  atom      -2.537520000      2.567960000      1.156120000  H
  
  -----------------------------------------------------------------------
  Completed first pass over input file geometry.in .
  -----------------------------------------------------------------------
  
 
  Basic array size parameters: 
  | Number of species                 :        2
  | Number of atoms                   :       13
  | Max. basis fn. angular momentum   :        4
  | Max. atomic/ionic basis occupied n:        2
  | Max. number of basis fn. types    :        2
  | Max. radial fns per species/type  :        8
  | Max. logarithmic grid size        :     1301
  | Max. radial integration grid size :       73
  | Max. angular integration grid size:      302
  | Max. angular grid division number :        8
  | Radial grid for Hartree potential :     1301
  | Number of spin channels           :        1

------------------------------------------------------------
          Reading file control.in.
------------------------------------------------------------
  XC: Using RPBE gradient-corrected functionals.
  Spin treatment: No spin polarisation.
  Scalar relativistic treatment of kinetic energy: on-site free-atom approximation to ZORA.
  Charge =   0.000000E+00: Neutral system requested explicitly.
  Using non-empirical van der Waals correction (Hirshfeld partitioning):
  Occupation type: Gaussian broadening, width =   0.100000E-01 eV.
  Using pulay charge density mixing.
  Pulay mixing - number of memorized iterations:   10
  Charge density mixing - mixing parameter:     0.1000
  Convergence accuracy of self-consistent charge density: 0.5000E-04
  Convergence accuracy of sum of eigenvalues: 0.5000E-02
  Convergence accuracy of total energy: 0.5000E-05
  Maximum number of s.-c. iterations  :  3000
  Kohn-Sham eigenvalues and eigenfunctions calculated by lapack diagonalisation (D&C).
  Number of empty states per atom:        8
  Threshold for basis singularities: 0.0000E+00
  Partition function in integrals calculations: rho / r^2
 Using packed matrix format           0
  Convergence accuracy of forces: 0.5000E-03
  Cleaning forces before final output.
  Hirshfeld charge analysis will be performed.
 
  Reading configuration options for species H                   .
  | Found nuclear charge :   1.0000
  | Found cutoff potl. onset [A], width [A], scale factor :    4.00000    2.00000    1.00000
  | Found cutoff specification for free atom: Cutoff potential begins at    8.00000 A.
  | Found logarithmic grid data [bohr] : 0.1000E-03 0.1000E+03 0.1012E+01
  | Threshold for basis-dependent cutoff potential is   0.100000E-03
  | Found data for basic radial integration grid :    24 points, outermost radius =    7.000 A
  | Found multiplier for basic radial grid :   2
  | Found angular grid specification: user-specified.
  | Specified grid contains     4 separate shells.
  | Check grid settings after all constraints further below.
  | Found l_max for Hartree potential  :   4
  | Found free-atom valence shell :  1 s   1.000
  | No ionic wave fns used. Skipping ion_occ.
  | Found hydrogenic basis function :  2 s   2.100
  | Found hydrogenic basis function :  2 p   3.500
  | Found hydrogenic basis function :  1 s   0.850
  | Found hydrogenic basis function :  2 p   3.700
  | Found hydrogenic basis function :  2 s   1.200
  | Found hydrogenic basis function :  3 d   7.000
  Species H                   : Missing cutoff potential type.
  Defaulting to exp(1/x)/(1-x)^2 type cutoff potential.
  Species H : On-site basis accuracy parameter (for Gram-Schmidt orthonormalisation) not specified.
  Using default value basis_acc =  0.1000000E-03.
  Species H                   : Using default innermost maximum threshold i_radial=  2 for radial functions.
  Species H                   : Basic radial grid will be enhanced according to radial_multiplier =   2, to contain    49 grid points.
 
  Reading configuration options for species O                   .
  | Found nuclear charge :   8.0000
  | Found atomic mass :    15.9994000000000      amu
  | Found l_max for Hartree potential  :   4
  | Found cutoff potl. onset [A], width [A], scale factor :    4.00000    2.00000    1.00000
  | Found cutoff specification for free atom: Cutoff potential begins at    8.00000 A.
  | Threshold for basis-dependent cutoff potential is   0.100000E-03
  | Found logarithmic grid data [bohr] : 0.1000E-03 0.1000E+03 0.1012E+01
  | Found data for basic radial integration grid :    36 points, outermost radius =    7.000 A
  | Found multiplier for basic radial grid :   2
  | Found angular grid specification: user-specified.
  | Specified grid contains     4 separate shells.
  | Check grid settings after all constraints further below.
  | Found free-atom valence shell :  2 s   2.000
  | Found free-atom valence shell :  2 p   4.000
  | No ionic wave fns used. Skipping ion_occ.
  | No ionic wave fns used. Skipping ion_occ.
  | Found hydrogenic basis function :  2 p   1.800
  | Found hydrogenic basis function :  3 d   7.600
  | Found hydrogenic basis function :  3 s   6.400
  | Found hydrogenic basis function :  4 f  11.600
  | Found hydrogenic basis function :  3 p   6.200
  | Found hydrogenic basis function :  3 d   5.600
  | Found hydrogenic basis function :  5 g  17.600
  | Found hydrogenic basis function :  1 s   0.750
  Species O                   : Missing cutoff potential type.
  Defaulting to exp(1/x)/(1-x)^2 type cutoff potential.
  Species O : On-site basis accuracy parameter (for Gram-Schmidt orthonormalisation) not specified.
  Using default value basis_acc =  0.1000000E-03.
  Species O                   : Using default innermost maximum threshold i_radial=  2 for radial functions.
  Species O                   : Basic radial grid will be enhanced according to radial_multiplier =   2, to contain    73 grid points.
 
  Finished reading input file 'control.in'. Consistency checks are next.
 
  Target number of points in a grid batch is not set. Defaulting to  100
  Method for grid partitioning is not set. Defaulting to parallel hash+maxmin partitioning.
  Batch size limit is not set. Defaulting to    200
  By default, will store active basis functions for each batch.
  If in need of memory, prune_basis_once .false. can be used to disable this option.
  communication_type for Hartree potential was not specified.
  Defaulting to calc_hartree .
  Pulay mixer: Number of initial linear mixing iterations not set.
  Defaulting to    0 iterations.
  Work space size for distributed Hartree potential not set.
  Defaulting to   0.200000E+03 MB.
  Algorithm-dependent basis array size parameters:
  | n_max_pulay                         :       10
  Geometry relaxation not requested: no relaxation will be performed.
  Handling of forces: Unphysical translation and rotation will be removed from forces.
  No accuracy limit for integral partition fn. given. Defaulting to 0.1000E-14.
  No threshold value for u(r) in integrations given. Defaulting to 0.1000E-05.
  No accuracy for occupation numbers given. Defaulting to 0.1000E-07.
  No threshold value for occupation numbers given. Defaulting to 0.0000E+00.
  No accuracy for fermi level given. Defaulting to 0.1000E-19.
  Maximum # of iterations to find E_F not set. Defaulting to  200.
  Will not use alltoall communication since running on < 1024 CPUs.
  Partitioning for Hartree potential was not defined. Using partition_type for integrals.
  | Reporting present value of keyword multip_moments_threshold  :       0.10000000E-09
  | This value may affect high angular momentum components of the Hartree potential in periodic systems.
  No q(lm)/r^(l+1) cutoff set for long-range Hartree potential.
  | Using default value of  0.100000E-09 .
  | Verify using the multipole_threshold keyword.
  Defaulting to new monopole extrapolation.
  Density update method: Loop over occupied states selected for charge density update.
------------------------------------------------------------


------------------------------------------------------------
          Reading geometry description geometry.in.
------------------------------------------------------------
  Input structure read successfully.
  The structure contains       13 atoms,  and a total of         41.000 electrons.

  Input geometry:
  | No unit cell requested.
  | Atomic structure:
  |       Atom                x [A]            y [A]            z [A]
  |    1: Species O             -4.053030         0.065001        -1.525160
  |    2: Species H             -4.566710         0.974813        -1.912820
  |    3: Species H             -3.067820         0.330172        -1.477310
  |    4: Species H             -4.370360        -0.049164        -0.572274
  |    5: Species O             -5.293160         2.192130        -2.328800
  |    6: Species H             -4.829300         2.988660        -1.973850
  |    7: Species H             -5.428570         2.328640        -3.235170
  |    8: Species O             -3.818880         2.024990         2.187990
  |    9: Species H             -3.690880         1.961360         3.202150
  |   10: Species H             -4.546490         2.751300         2.045370
  |   11: Species O             -1.975360         2.858040         0.453140
  |   12: Species H             -1.223550         3.375850         0.786238
  |   13: Species H             -2.537520         2.567960         1.156120
  |

  | The smallest distance between any two atoms is         0.92654057 AA.
  |
  | The first atom of this pair is atom number                      5 .
  | The second atom of this pair is atom number                     7 .

  Structure-dependent array size parameters: 
  | Maximum number of distinct radial functions  :       18
  | Maximum number of basis functions            :      291
  | Number of Kohn-Sham states (occupied + empty):       73
------------------------------------------------------------

------------------------------------------------------------
          Preparing all fixed parts of the calculation.
------------------------------------------------------------
  Determining machine precision:
    2.225073858507201E-308
  Setting up grids for atomic and cluster calculations.

  Creating wave function, potential, and density for free atoms.

  Species: H

  List of occupied orbitals and eigenvalues:
    n    l              occ      energy [Ha]    energy [eV]
    1    0           1.0000        -0.241408        -6.5691


  Species: O

  List of occupied orbitals and eigenvalues:
    n    l              occ      energy [Ha]    energy [eV]
    1    0           2.0000       -18.944147      -515.4965
    2    0           2.0000        -0.883529       -24.0421
    2    1           4.0000        -0.330176        -8.9845

  Creating fixed part of basis set: Ionic, confined, hydrogenic.
 
  H                    hydrogenic:
 
  List of hydrogenic basis orbitals: 
    n    l      effective z      eigenvalue [eV]  inner max. [A]     outer max. [A]     outer radius [A]   
    2    0         2.100000       -14.9965           0.193241           1.317192           5.372934
    2    1         3.500000       -41.6672           0.602363           0.602363           4.056010
    1    0         0.850000        -9.8292           0.624864           0.624864           5.372934
    2    1         3.700000       -46.5653           0.573616           0.573616           3.909951
    2    0         1.200000        -4.5995           0.334977           2.228160           5.505921
    3    2         7.000000       -74.0753           0.680692           0.680692           3.769152
 
 
  O                    hydrogenic:
 
  List of hydrogenic basis orbitals: 
    n    l      effective z      eigenvalue [eV]  inner max. [A]     outer max. [A]     outer radius [A]   
    2    1         1.800000       -11.0118           1.178546           1.178546           5.432516
    3    2         7.600000       -87.3182           0.624117           0.624117           3.541422
    3    0         6.400000       -61.9209           0.061166           1.081887           4.306510
    4    3        11.600000      -114.4238           0.731621           0.731621           3.584982
    3    1         6.200000       -58.1113           0.255677           1.030255           4.306510
    3    2         5.600000       -47.4081           0.847222           0.847222           4.413102
    5    4        17.600000      -168.5799           0.749730           0.749730           3.372413
    1    0         0.750000        -7.6499           0.705275           0.705275           5.366508
 

  Adding cutoff potential to free-atom effective potential.
  Creating atomic-like basis functions for current effective potential.

  Species H                   :

  List of atomic basis orbitals and eigenvalues:
    n    l      energy [Ha]    energy [eV]    outer radius [A]
    1    0        -0.241374        -6.5681       5.372934


  Species O                   :

  List of atomic basis orbitals and eigenvalues:
    n    l      energy [Ha]    energy [eV]    outer radius [A]
    1    0       -18.944147      -515.4965       1.415745
    2    0        -0.883529       -24.0421       5.048305
    2    1        -0.330173        -8.9845       5.301302

  Assembling full basis from fixed parts.
  | Species H :   atomic orbital   1 s accepted.
  | Species H :    hydro orbital   2 s accepted.
  | Species H :    hydro orbital   1 s accepted.
  | Species H :    hydro orbital   2 s accepted.
  | Species H :    hydro orbital   2 p accepted.
  | Species H :    hydro orbital   2 p accepted.
  | Species H :    hydro orbital   3 d accepted.
  | Species O :   atomic orbital   1 s accepted.
  | Species O :    hydro orbital   3 s accepted.
  | Species O :   atomic orbital   2 s accepted.
  | Species O :    hydro orbital   1 s accepted.
  | Species O :    hydro orbital   3 p accepted.
  | Species O :   atomic orbital   2 p accepted.
  | Species O :    hydro orbital   2 p accepted.
  | Species O :    hydro orbital   3 d accepted.
  | Species O :    hydro orbital   3 d accepted.
  | Species O :    hydro orbital   4 f accepted.
  | Species O :    hydro orbital   5 g accepted.
 
  Basis size parameters after reduction:
  | Total number of radial functions:       18
  | Total number of basis functions :      291
 
  Testing on-site integration grid accuracy.
  |  Species  Function  <phi|h_atom|phi> (log., in eV)  <phi|h_atom|phi> (rad., in eV)
           1        1                 -6.5683835025                 -6.5684759159
           1        2                 13.3711789951                 13.3708738703
           1        3                 23.6590910787                 23.6532055418
           1        4                 16.2963827186                 16.1870710655 ***
           1        5                 28.7627214838                 28.7627215090
           1        6                 59.5965249172                 59.5965950857
           1        7                 60.2220506392                 60.2220503827
           2        8               -515.4964576505               -515.4964530710
           2        9                 15.3030791347                 15.3030722972
           2       10                -21.7296094581                -21.7296135470
           2       11                 14.2969371730                 14.2969701621
           2       12                 21.0679693190                 21.0679697493
           2       13                 -2.3833606469                 -2.3833613176
           2       14                 13.7067136422                 13.7066766629
           2       15                 45.8013116808                 45.8013116965
           2       16                 52.2309815402                 52.2309831494
           2       17                 85.4120732416                 85.4120732763
           2       18                142.1019167745                142.1019167817
 * Note: Onsite integrals marked "***" above are less accurate than
 * onsite_accuracy_threshold =    0.03000 eV. Usually, this is harmless.
 * When in doubt, tighten the "radial" and/or "radial_multiplier" flags to check.

  Preparing densities etc. for the partition functions (integrals / Hartree potential).

  Preparations completed.
  max(cpu_time)          :      0.172 s.
  Wall clock time (cpu1) :      0.499 s.
------------------------------------------------------------

------------------------------------------------------------
          Begin self-consistency loop: Initialization.

          Date     :  20150727, Time     :  124733.677
------------------------------------------------------------

  Initializing index lists of integration centers etc. from given atomic structure:
  | Number of centers in hartree potential         :        13
  | Number of centers in hartree multipole         :        13
  | Number of centers in electron density summation:        13
  | Number of centers in basis integrals           :        13
  | Number of centers in integrals                 :        13
  Partitioning the integration grid into batches with parallel hashing+maxmin method.
  | Number of batches:     1766
  | Maximal batch size:     200
  | Minimal batch size:      50
  | Average batch size:      95.675
  | Standard deviation of batch sizes:      29.909

  Integration load balanced across     8 MPI tasks.
  Work distribution over tasks is as follows:
  Task     0 has      21089 integration points.
  Task     1 has      21116 integration points.
  Task     2 has      21135 integration points.
  Task     3 has      21116 integration points.
  Task     4 has      21205 integration points.
  Task     5 has      21078 integration points.
  Task     6 has      21134 integration points.
  Task     7 has      21089 integration points.
  Initializing partition tables, free-atom densities, potentials, etc. across the integration grid (initialize_grid_storage).
  | Net number of integration points:   168962
  | of which are non-zero points    :   168436
  Obtaining max. number of non-zero basis functions in each batch (get_n_compute_maxes).
  | Maximal number of non-zero basis functions:      289 in task     0
  | Maximal number of non-zero basis functions:      288 in task     1
  | Maximal number of non-zero basis functions:      288 in task     2
  | Maximal number of non-zero basis functions:      289 in task     3
  | Maximal number of non-zero basis functions:      288 in task     4
  | Maximal number of non-zero basis functions:      288 in task     5
  | Maximal number of non-zero basis functions:      288 in task     6
  | Maximal number of non-zero basis functions:      289 in task     7
  Integrating Hamiltonian matrix: batch-based integration.
  Time summed over all CPUs for integration: real work        4.911 s, elapsed        5.079 s
  Integrating overlap matrix.
  Time summed over all CPUs for integration: real work        2.599 s, elapsed        2.650 s

  Updating Kohn-Sham eigenvalues, eigenvectors, occupation numbers, and Fermi level.
  Solving generalized eigenproblem
  Updating Kohn-Sham eigenvalues and eigenfunctions.
  Transforming overlap matrix and checking for singularities.
  Overlap matrix is nonsingular:
  | Lowest eigenvalue:  0.309622E-03
  Solving real generalised eigenvalue problem by standard LAPACK (fast)
  Determining occupation numbers for Kohn-Sham eigenstates.
  | Chemical potential (Fermi level) in eV                 : -.27417826E+01
  | Error in electron count due to remaining E_F inaccuracy: 0.00000000E+00
  | Maximum occupation number of highest empty state:  0.00E+00

  Writing Kohn-Sham eigenvalues.

  State    Occupation    Eigenvalue [Ha]    Eigenvalue [eV]
      1       2.00000         -19.064885         -518.78191
      2       2.00000         -19.064849         -518.78093
      3       2.00000         -19.054631         -518.50290
      4       2.00000         -19.032595         -517.90327
      5       2.00000          -1.127476          -30.68019
      6       2.00000          -1.112497          -30.27257
      7       2.00000          -1.105409          -30.07970
      8       2.00000          -1.064887          -28.97706
      9       2.00000          -0.651610          -17.73122
     10       2.00000          -0.650703          -17.70654
     11       2.00000          -0.627462          -17.07412
     12       2.00000          -0.619846          -16.86687
     13       2.00000          -0.594060          -16.16519
     14       2.00000          -0.524830          -14.28134
     15       2.00000          -0.509102          -13.85338
     16       2.00000          -0.490506          -13.34736
     17       2.00000          -0.486839          -13.24755
     18       2.00000          -0.452494          -12.31298
     19       2.00000          -0.438629          -11.93571
     20       2.00000          -0.424880          -11.56156
     21       1.00000          -0.100759           -2.74178
     22       0.00000          -0.075075           -2.04288
     23       0.00000          -0.056346           -1.53325
     24       0.00000          -0.044270           -1.20465
     25       0.00000          -0.018135           -0.49348
     26       0.00000          -0.014644           -0.39847
     27       0.00000           0.001442            0.03925
     28       0.00000           0.043843            1.19303
     29       0.00000           0.056853            1.54705
     30       0.00000           0.066608            1.81251
     31       0.00000           0.074752            2.03410
     32       0.00000           0.084818            2.30802
     33       0.00000           0.097968            2.66583
     34       0.00000           0.101275            2.75584
     35       0.00000           0.105579            2.87295
     36       0.00000           0.110132            2.99684
     37       0.00000           0.116347            3.16597
     38       0.00000           0.128586            3.49900
     39       0.00000           0.136840            3.72361
     40       0.00000           0.148664            4.04536
     41       0.00000           0.163513            4.44941
     42       0.00000           0.176679            4.80769
     43       0.00000           0.184534            5.02142
     44       0.00000           0.225684            6.14117
     45       0.00000           0.237910            6.47386
     46       0.00000           0.242134            6.58880
     47       0.00000           0.248679            6.76690
     48       0.00000           0.267583            7.28130
     49       0.00000           0.272668            7.41967
     50       0.00000           0.299503            8.14988
     51       0.00000           0.324094            8.81904
     52       0.00000           0.346089            9.41756
     53       0.00000           0.363267            9.88500
     54       0.00000           0.378144           10.28981
     55       0.00000           0.380234           10.34668
     56       0.00000           0.382945           10.42047
     57       0.00000           0.398044           10.83133
     58       0.00000           0.406592           11.06392
     59       0.00000           0.426959           11.61814
     60       0.00000           0.437047           11.89266
     61       0.00000           0.441235           12.00660
     62       0.00000           0.477008           12.98006
     63       0.00000           0.487543           13.26671
     64       0.00000           0.515142           14.01774
     65       0.00000           0.538150           14.64382
     66       0.00000           0.550287           14.97408
     67       0.00000           0.555095           15.10489
     68       0.00000           0.592463           16.12174
     69       0.00000           0.624087           16.98227
     70       0.00000           0.640028           17.41605
     71       0.00000           0.662740           18.03409
     72       0.00000           0.736023           20.02821
     73       0.00000           0.745692           20.29130

  Highest occupied state (VBM) at     -2.74178262 eV
  | Occupation number:      1.00000000

  Lowest unoccupied state (CBM) at    -2.74178262 eV
  | Occupation number:      1.00000000

  Overall HOMO-LUMO gap:      0.00000000 eV.
  Calculating total energy contributions from superposition of free atom densities.

  Total energy components:
  | Sum of eigenvalues            :        -174.29714037 Ha       -4742.86650373 eV
  | XC energy correction          :         -36.80924211 Ha       -1001.63044010 eV
  | XC potential correction       :          47.04146273 Ha        1280.06332986 eV
  | Free-atom electrostatic energy:        -142.85330925 Ha       -3887.23632510 eV
  | Hartree energy correction     :           0.00000000 Ha           0.00000000 eV
  | van der Waals energy corr.    :           0.00000000 Ha           0.00000000 eV
  | Entropy correction            :          -0.00010367 Ha          -0.00282095 eV
  | ---------------------------
  | Total energy                  :        -306.91822899 Ha       -8351.66993906 eV
  | Total energy, T -> 0          :        -306.91833266 Ha       -8351.67276001 eV  <-- do not rely on this value for anything but (periodic) metals
  | Electronic free energy        :        -306.91843632 Ha       -8351.67558096 eV

  Derived energy quantities:
  | Kinetic energy                :         303.99490294 Ha        8272.12219005 eV
  | Electrostatic energy          :        -574.10388983 Ha      -15622.16168901 eV
  | Energy correction for multipole
  | error in Hartree potential    :           0.00000000 Ha           0.00000000 eV
  | Sum of eigenvalues per atom                           :        -364.83588490 eV
  | Total energy (T->0) per atom                          :        -642.43636615 eV  <-- do not rely on this value for anything but (periodic) metals
  | Electronic free energy per atom                       :        -642.43658315 eV
  Initialize hartree_potential_storage
  Max. number of atoms included in rho_multipole:           13

  End scf initialization - timings             :  max(cpu_time)    wall_clock(cpu1)
  | Time for scf. initialization               :        1.417 s           1.416 s
  | Boundary condition initialization          :        0.000 s           0.021 s
  | Integration                                :        0.968 s           0.969 s
  | Solution of K.-S. eqns.                    :        0.135 s           0.136 s
  | Grid partitioning                          :        0.124 s           0.124 s
  | Preloading free-atom quantities on grid    :        0.013 s           0.014 s
  | Free-atom superposition energy             :        0.052 s           0.052 s
  | Total energy evaluation                    :        0.000 s           0.000 s
------------------------------------------------------------

------------------------------------------------------------
          Begin self-consistency iteration #    1

  Date     :  20150727, Time     :  124735.093
------------------------------------------------------------
  Evaluating new KS density.
  Integration grid: deviation in total charge (<rho> - N_e) =   2.842171E-14
  Pulay mixing of updated and previous charge densities.

  Evaluating partitioned Hartree potential by multipole expansion.
  | Analytical far-field extrapolation by fixed multipoles:
  | Hartree multipole sum: apparent total charge =  -0.867084E-06
  Summing up the Hartree potential.
  Time summed over all CPUs for potential: real work        1.919 s, elapsed        1.926 s
  | RMS charge density error from multipole expansion :   0.150051E-02

  Integrating Hamiltonian matrix: batch-based integration.
  Time summed over all CPUs for integration: real work        4.907 s, elapsed        5.052 s

  Updating Kohn-Sham eigenvalues, eigenvectors, occupation numbers, and Fermi level.
  Solving generalized eigenproblem
  Updating Kohn-Sham eigenvalues and eigenfunctions.
  Solving real generalised eigenvalue problem by standard LAPACK (fast)
  Determining occupation numbers for Kohn-Sham eigenstates.
  | Chemical potential (Fermi level) in eV                 : -.25515038E+01
  | Error in electron count due to remaining E_F inaccuracy: 0.11051711E-08
  | Maximum occupation number of highest empty state:  0.00E+00

  Writing Kohn-Sham eigenvalues.

  State    Occupation    Eigenvalue [Ha]    Eigenvalue [eV]
      1       2.00000         -19.015023         -517.42510
      2       2.00000         -18.997559         -516.94989
      3       2.00000         -18.965294         -516.07191
      4       2.00000         -18.959700         -515.91970
      5       2.00000          -1.101989          -29.98665
      6       2.00000          -1.084525          -29.51144
      7       2.00000          -1.058700          -28.80870
      8       2.00000          -1.027285          -27.95385
      9       2.00000          -0.624225          -16.98604
     10       2.00000          -0.610455          -16.61133
     11       2.00000          -0.608687          -16.56321
     12       2.00000          -0.599334          -16.30871
     13       2.00000          -0.562714          -15.31223
     14       2.00000          -0.496765          -13.51765
     15       2.00000          -0.467421          -12.71916
     16       2.00000          -0.461732          -12.56436
     17       2.00000          -0.448471          -12.20350
     18       2.00000          -0.420867          -11.45238
     19       2.00000          -0.391193          -10.64489
     20       2.00000          -0.384620          -10.46605
     21       1.00000          -0.093766           -2.55150
     22       0.00000          -0.067013           -1.82351
     23       0.00000          -0.050901           -1.38510
     24       0.00000          -0.034996           -0.95229
     25       0.00000          -0.011049           -0.30066
     26       0.00000          -0.008144           -0.22161
     27       0.00000           0.007931            0.21580
     28       0.00000           0.049580            1.34915
     29       0.00000           0.063119            1.71756
     30       0.00000           0.072583            1.97509
     31       0.00000           0.079355            2.15936
     32       0.00000           0.094328            2.56680
     33       0.00000           0.104275            2.83746
     34       0.00000           0.109143            2.96992
     35       0.00000           0.115882            3.15331
     36       0.00000           0.117052            3.18516
     37       0.00000           0.123138            3.35077
     38       0.00000           0.136605            3.71720
     39       0.00000           0.144926            3.94363
     40       0.00000           0.161139            4.38482
     41       0.00000           0.172154            4.68456
     42       0.00000           0.185219            5.04008
     43       0.00000           0.195653            5.32398
     44       0.00000           0.232558            6.32823
     45       0.00000           0.243376            6.62259
     46       0.00000           0.248480            6.76147
     47       0.00000           0.256664            6.98418
     48       0.00000           0.274683            7.47449
     49       0.00000           0.279174            7.59672
     50       0.00000           0.304122            8.27558
     51       0.00000           0.331474            9.01985
     52       0.00000           0.354758            9.65347
     53       0.00000           0.368501           10.02742
     54       0.00000           0.385649           10.49405
     55       0.00000           0.387911           10.55560
     56       0.00000           0.392876           10.69070
     57       0.00000           0.406098           11.05050
     58       0.00000           0.415064           11.29446
     59       0.00000           0.434357           11.81945
     60       0.00000           0.444798           12.10358
     61       0.00000           0.451029           12.27313
     62       0.00000           0.482832           13.13851
     63       0.00000           0.497990           13.55099
     64       0.00000           0.522195           14.20966
     65       0.00000           0.546343           14.86675
     66       0.00000           0.562062           15.29448
     67       0.00000           0.564893           15.37153
     68       0.00000           0.604878           16.45957
     69       0.00000           0.633436           17.23666
     70       0.00000           0.649952           17.68610
     71       0.00000           0.674249           18.34725
     72       0.00000           0.747414           20.33816
     73       0.00000           0.753567           20.50561

  Highest occupied state (VBM) at     -2.55150383 eV
  | Occupation number:      1.00000000

  Lowest unoccupied state (CBM) at    -1.82350992 eV
  | Occupation number:      0.00000000

  Overall HOMO-LUMO gap:      0.72799391 eV.

  Total energy components:
  | Sum of eigenvalues            :        -172.66688623 Ha       -4698.50503159 eV
  | XC energy correction          :         -36.98422201 Ha       -1006.39188545 eV
  | XC potential correction       :          47.27016231 Ha        1286.28656211 eV
  | Free-atom electrostatic energy:        -142.85330925 Ha       -3887.23632510 eV
  | Hartree energy correction     :          -1.58537145 Ha         -43.14015223 eV
  | van der Waals energy corr.    :           0.00000000 Ha           0.00000000 eV
  | Entropy correction            :          -0.00010367 Ha          -0.00282095 eV
  | ---------------------------
  | Total energy                  :        -306.81962663 Ha       -8348.98683226 eV
  | Total energy, T -> 0          :        -306.81973029 Ha       -8348.98965320 eV  <-- do not rely on this value for anything but (periodic) metals
  | Electronic free energy        :        -306.81983396 Ha       -8348.99247415 eV

  Derived energy quantities:
  | Kinetic energy                :         305.06954101 Ha        8301.36457965 eV
  | Electrostatic energy          :        -574.90494563 Ha      -15643.95952645 eV
  | Energy correction for multipole
  | error in Hartree potential    :           0.00033670 Ha           0.00916212 eV
  | Sum of eigenvalues per atom                           :        -361.42346397 eV
  | Total energy (T->0) per atom                          :        -642.22997332 eV  <-- do not rely on this value for anything but (periodic) metals
  | Electronic free energy per atom                       :        -642.23019032 eV

  Self-consistency convergence accuracy:
  | Change of charge density      : 0.5692E+00
  | Change of sum of eigenvalues  : 0.4436E+02 eV
  | Change of total energy        : 0.2683E+01 eV

  End self-consistency iteration #     1       :  max(cpu_time)    wall_clock(cpu1)
  | Time for this iteration                    :        1.372 s           1.372 s
  | Charge density update                      :        0.453 s           0.453 s
  | Density mixing                             :        0.003 s           0.002 s
  | Hartree multipole update                   :        0.004 s           0.005 s
  | Hartree multipole summation                :        0.242 s           0.241 s
  | Integration                                :        0.633 s           0.633 s
  | Solution of K.-S. eqns.                    :        0.036 s           0.036 s
  | Total energy evaluation                    :        0.001 s           0.001 s
------------------------------------------------------------

------------------------------------------------------------
          Begin self-consistency iteration #    2

  Date     :  20150727, Time     :  124736.465
------------------------------------------------------------
  Evaluating new KS density.
  Integration grid: deviation in total charge (<rho> - N_e) =   1.105178E-09
  Pulay mixing of updated and previous charge densities.

  Evaluating partitioned Hartree potential by multipole expansion.
  | Analytical far-field extrapolation by fixed multipoles:
  | Hartree multipole sum: apparent total charge =  -0.362820E-05
  Summing up the Hartree potential.
  Time summed over all CPUs for potential: real work        1.919 s, elapsed        1.926 s
  | RMS charge density error from multipole expansion :   0.608773E-02

  Integrating Hamiltonian matrix: batch-based integration.
  Time summed over all CPUs for integration: real work        4.895 s, elapsed        5.046 s

  Updating Kohn-Sham eigenvalues, eigenvectors, occupation numbers, and Fermi level.
  Solving generalized eigenproblem
  Updating Kohn-Sham eigenvalues and eigenfunctions.
  Solving real generalised eigenvalue problem by standard LAPACK (fast)
  Determining occupation numbers for Kohn-Sham eigenstates.
  | Chemical potential (Fermi level) in eV                 : -.21042177E+01
  | Error in electron count due to remaining E_F inaccuracy: 0.21316282E-12
  | Maximum occupation number of highest empty state:  0.00E+00

  Highest occupied state (VBM) at     -2.10421769 eV
  | Occupation number:      1.00000000

  Lowest unoccupied state (CBM) at    -1.31382974 eV
  | Occupation number:      0.00000000

  Overall HOMO-LUMO gap:      0.79038795 eV.

  Total energy components:
  | Sum of eigenvalues            :        -168.75914243 Ha       -4592.16991256 eV
  | XC energy correction          :         -37.42400677 Ha       -1018.35903787 eV
  | XC potential correction       :          47.84371277 Ha        1301.89366404 eV
  | Free-atom electrostatic energy:        -142.85330925 Ha       -3887.23632510 eV
  | Hartree energy correction     :          -5.51420977 Ha        -150.04928219 eV
  | van der Waals energy corr.    :           0.00000000 Ha           0.00000000 eV
  | Entropy correction            :          -0.00010367 Ha          -0.00282095 eV
  | ---------------------------
  | Total energy                  :        -306.70695545 Ha       -8345.92089368 eV
  | Total energy, T -> 0          :        -306.70705912 Ha       -8345.92371462 eV  <-- do not rely on this value for anything but (periodic) metals
  | Electronic free energy        :        -306.70716279 Ha       -8345.92653557 eV

  Derived energy quantities:
  | Kinetic energy                :         307.30201381 Ha        8362.11325538 eV
  | Electrostatic energy          :        -576.58496249 Ha      -15689.67511119 eV
  | Energy correction for multipole
  | error in Hartree potential    :           0.00069593 Ha           0.01893735 eV
  | Sum of eigenvalues per atom                           :        -353.24383943 eV
  | Total energy (T->0) per atom                          :        -641.99413189 eV  <-- do not rely on this value for anything but (periodic) metals
  | Electronic free energy per atom                       :        -641.99434889 eV

  Self-consistency convergence accuracy:
  | Change of charge density      : 0.4329E+00
  | Change of sum of eigenvalues  : 0.1063E+03 eV
  | Change of total energy        : 0.3066E+01 eV

  End self-consistency iteration #     2       :  max(cpu_time)    wall_clock(cpu1)
  | Time for this iteration                    :        1.362 s           1.362 s
  | Charge density update                      :        0.444 s           0.444 s
  | Density mixing                             :        0.004 s           0.004 s
  | Hartree multipole update                   :        0.005 s           0.005 s
  | Hartree multipole summation                :        0.241 s           0.241 s
  | Integration                                :        0.632 s           0.632 s
  | Solution of K.-S. eqns.                    :        0.035 s           0.036 s
  | Total energy evaluation                    :        0.000 s           0.000 s
------------------------------------------------------------

------------------------------------------------------------
          Begin self-consistency iteration #    3

  Date     :  20150727, Time     :  124737.827
------------------------------------------------------------
  Evaluating new KS density.
  Integration grid: deviation in total charge (<rho> - N_e) =   1.989520E-13
  Pulay mixing of updated and previous charge densities.

  Evaluating partitioned Hartree potential by multipole expansion.
  | Analytical far-field extrapolation by fixed multipoles:
  | Hartree multipole sum: apparent total charge =  -0.410864E-05
  Summing up the Hartree potential.
  Time summed over all CPUs for potential: real work        1.919 s, elapsed        1.926 s
  | RMS charge density error from multipole expansion :   0.119952E-01

  Integrating Hamiltonian matrix: batch-based integration.
  Time summed over all CPUs for integration: real work        4.900 s, elapsed        5.050 s

  Updating Kohn-Sham eigenvalues, eigenvectors, occupation numbers, and Fermi level.
  Solving generalized eigenproblem
  Updating Kohn-Sham eigenvalues and eigenfunctions.
  Solving real generalised eigenvalue problem by standard LAPACK (fast)
  Determining occupation numbers for Kohn-Sham eigenstates.
  | Chemical potential (Fermi level) in eV                 : -.20936233E+01
  | Error in electron count due to remaining E_F inaccuracy: 0.11560530E-09
  | Maximum occupation number of highest empty state:  0.00E+00

  Highest occupied state (VBM) at     -2.09362331 eV
  | Occupation number:      1.00000000

  Lowest unoccupied state (CBM) at    -1.31509102 eV
  | Occupation number:      0.00000000

  Overall HOMO-LUMO gap:      0.77853228 eV.

  Total energy components:
  | Sum of eigenvalues            :        -169.06385487 Ha       -4600.46155986 eV
  | XC energy correction          :         -37.40267690 Ha       -1017.77862249 eV
  | XC potential correction       :          47.80930035 Ha        1300.95725459 eV
  | Free-atom electrostatic energy:        -142.85330925 Ha       -3887.23632510 eV
  | Hartree energy correction     :          -5.19465492 Ha        -141.35375229 eV
  | van der Waals energy corr.    :           0.00000000 Ha           0.00000000 eV
  | Entropy correction            :          -0.00010367 Ha          -0.00282095 eV
  | ---------------------------
  | Total energy                  :        -306.70519558 Ha       -8345.87300514 eV
  | Total energy, T -> 0          :        -306.70529925 Ha       -8345.87582609 eV  <-- do not rely on this value for anything but (periodic) metals
  | Electronic free energy        :        -306.70540292 Ha       -8345.87864704 eV

  Derived energy quantities:
  | Kinetic energy                :         305.89924729 Ha        8323.94203625 eV
  | Electrostatic energy          :        -575.20176597 Ha      -15652.03641891 eV
  | Energy correction for multipole
  | error in Hartree potential    :          -0.00178123 Ha          -0.04846987 eV
  | Sum of eigenvalues per atom                           :        -353.88165845 eV
  | Total energy (T->0) per atom                          :        -641.99044816 eV  <-- do not rely on this value for anything but (periodic) metals
  | Electronic free energy per atom                       :        -641.99066516 eV

  Self-consistency convergence accuracy:
  | Change of charge density      : 0.2127E+00
  | Change of sum of eigenvalues  : -.8292E+01 eV
  | Change of total energy        : 0.4789E-01 eV

  End self-consistency iteration #     3       :  max(cpu_time)    wall_clock(cpu1)
  | Time for this iteration                    :        1.366 s           1.366 s
  | Charge density update                      :        0.446 s           0.446 s
  | Density mixing                             :        0.006 s           0.006 s
  | Hartree multipole update                   :        0.004 s           0.004 s
  | Hartree multipole summation                :        0.242 s           0.242 s
  | Integration                                :        0.632 s           0.632 s
  | Solution of K.-S. eqns.                    :        0.036 s           0.036 s
  | Total energy evaluation                    :        0.000 s           0.000 s
------------------------------------------------------------

------------------------------------------------------------
          Begin self-consistency iteration #    4

  Date     :  20150727, Time     :  124739.193
------------------------------------------------------------
  Evaluating new KS density.
  Integration grid: deviation in total charge (<rho> - N_e) =   1.156124E-10
  Pulay mixing of updated and previous charge densities.

  Evaluating partitioned Hartree potential by multipole expansion.
  | Analytical far-field extrapolation by fixed multipoles:
  | Hartree multipole sum: apparent total charge =  -0.511944E-05
  Summing up the Hartree potential.
  Time summed over all CPUs for potential: real work        1.918 s, elapsed        1.925 s
  | RMS charge density error from multipole expansion :   0.158892E-01

  Integrating Hamiltonian matrix: batch-based integration.
  Time summed over all CPUs for integration: real work        4.881 s, elapsed        5.037 s

  Updating Kohn-Sham eigenvalues, eigenvectors, occupation numbers, and Fermi level.
  Solving generalized eigenproblem
  Updating Kohn-Sham eigenvalues and eigenfunctions.
  Solving real generalised eigenvalue problem by standard LAPACK (fast)
  Determining occupation numbers for Kohn-Sham eigenstates.
  | Chemical potential (Fermi level) in eV                 : -.19663833E+01
  | Error in electron count due to remaining E_F inaccuracy: 0.71627682E-08
  | Maximum occupation number of highest empty state:  0.00E+00

  Highest occupied state (VBM) at     -1.96638333 eV
  | Occupation number:      1.00000001

  Lowest unoccupied state (CBM) at    -1.17491992 eV
  | Occupation number:      0.00000000

  Overall HOMO-LUMO gap:      0.79146341 eV.

  Total energy components:
  | Sum of eigenvalues            :        -168.01014873 Ha       -4571.78875693 eV
  | XC energy correction          :         -37.54249882 Ha       -1021.58337046 eV
  | XC potential correction       :          47.98906050 Ha        1305.84877705 eV
  | Free-atom electrostatic energy:        -142.85330925 Ha       -3887.23632510 eV
  | Hartree energy correction     :          -6.28351922 Ha        -170.98325755 eV
  | van der Waals energy corr.    :           0.00000000 Ha           0.00000000 eV
  | Entropy correction            :          -0.00010367 Ha          -0.00282095 eV
  | ---------------------------
  | Total energy                  :        -306.70041552 Ha       -8345.74293299 eV
  | Total energy, T -> 0          :        -306.70051919 Ha       -8345.74575394 eV  <-- do not rely on this value for anything but (periodic) metals
  | Electronic free energy        :        -306.70062285 Ha       -8345.74857488 eV

  Derived energy quantities:
  | Kinetic energy                :         305.96641496 Ha        8325.76976148 eV
  | Electrostatic energy          :        -575.12433166 Ha      -15649.92932401 eV
  | Energy correction for multipole
  | error in Hartree potential    :          -0.00274412 Ha          -0.07467133 eV
  | Sum of eigenvalues per atom                           :        -351.67605823 eV
  | Total energy (T->0) per atom                          :        -641.98044261 eV  <-- do not rely on this value for anything but (periodic) metals
  | Electronic free energy per atom                       :        -641.98065961 eV

  Self-consistency convergence accuracy:
  | Change of charge density      : 0.1041E+00
  | Change of sum of eigenvalues  : 0.2867E+02 eV
  | Change of total energy        : 0.1301E+00 eV

  End self-consistency iteration #     4       :  max(cpu_time)    wall_clock(cpu1)
  | Time for this iteration                    :        1.370 s           1.370 s
  | Charge density update                      :        0.450 s           0.450 s
  | Density mixing                             :        0.007 s           0.007 s
  | Hartree multipole update                   :        0.005 s           0.004 s
  | Hartree multipole summation                :        0.241 s           0.242 s
  | Integration                                :        0.631 s           0.630 s
  | Solution of K.-S. eqns.                    :        0.036 s           0.036 s
  | Total energy evaluation                    :        0.000 s           0.001 s
------------------------------------------------------------

------------------------------------------------------------
          Begin self-consistency iteration #    5

  Date     :  20150727, Time     :  124740.563
------------------------------------------------------------
  Evaluating new KS density.
  Integration grid: deviation in total charge (<rho> - N_e) =   7.162782E-09
  Pulay mixing of updated and previous charge densities.

  Evaluating partitioned Hartree potential by multipole expansion.
  | Analytical far-field extrapolation by fixed multipoles:
  | Hartree multipole sum: apparent total charge =  -0.505576E-05
  Summing up the Hartree potential.
  Time summed over all CPUs for potential: real work        1.918 s, elapsed        1.925 s
  | RMS charge density error from multipole expansion :   0.160563E-01

  Integrating Hamiltonian matrix: batch-based integration.
  Time summed over all CPUs for integration: real work        4.877 s, elapsed        5.035 s

  Updating Kohn-Sham eigenvalues, eigenvectors, occupation numbers, and Fermi level.
  Solving generalized eigenproblem
  Updating Kohn-Sham eigenvalues and eigenfunctions.
  Solving real generalised eigenvalue problem by standard LAPACK (fast)
  Determining occupation numbers for Kohn-Sham eigenstates.
  | Chemical potential (Fermi level) in eV                 : -.19740199E+01
  | Error in electron count due to remaining E_F inaccuracy: 0.12789769E-12
  | Maximum occupation number of highest empty state:  0.00E+00

  Highest occupied state (VBM) at     -1.97401992 eV
  | Occupation number:      1.00000000

  Lowest unoccupied state (CBM) at    -1.17074309 eV
  | Occupation number:      0.00000000

  Overall HOMO-LUMO gap:      0.80327682 eV.

  Total energy components:
  | Sum of eigenvalues            :        -168.08920353 Ha       -4573.93994745 eV
  | XC energy correction          :         -37.53421679 Ha       -1021.35800504 eV
  | XC potential correction       :          47.97780195 Ha        1305.54241625 eV
  | Free-atom electrostatic energy:        -142.85330925 Ha       -3887.23632510 eV
  | Hartree energy correction     :          -6.20114960 Ha        -168.74186614 eV
  | van der Waals energy corr.    :           0.00000000 Ha           0.00000000 eV
  | Entropy correction            :          -0.00010367 Ha          -0.00282095 eV
  | ---------------------------
  | Total energy                  :        -306.70007722 Ha       -8345.73372748 eV
  | Total energy, T -> 0          :        -306.70018089 Ha       -8345.73654843 eV  <-- do not rely on this value for anything but (periodic) metals
  | Electronic free energy        :        -306.70028456 Ha       -8345.73936938 eV

  Derived energy quantities:
  | Kinetic energy                :         305.94247223 Ha        8325.11824672 eV
  | Electrostatic energy          :        -575.10833266 Ha      -15649.49396917 eV
  | Energy correction for multipole
  | error in Hartree potential    :          -0.00277135 Ha          -0.07541214 eV
  | Sum of eigenvalues per atom                           :        -351.84153442 eV
  | Total energy (T->0) per atom                          :        -641.97973449 eV  <-- do not rely on this value for anything but (periodic) metals
  | Electronic free energy per atom                       :        -641.97995149 eV

  Self-consistency convergence accuracy:
  | Change of charge density      : 0.2631E-01
  | Change of sum of eigenvalues  : -.2151E+01 eV
  | Change of total energy        : 0.9206E-02 eV

  End self-consistency iteration #     5       :  max(cpu_time)    wall_clock(cpu1)
  | Time for this iteration                    :        1.367 s           1.366 s
  | Charge density update                      :        0.446 s           0.446 s
  | Density mixing                             :        0.008 s           0.008 s
  | Hartree multipole update                   :        0.005 s           0.004 s
  | Hartree multipole summation                :        0.241 s           0.242 s
  | Integration                                :        0.631 s           0.630 s
  | Solution of K.-S. eqns.                    :        0.035 s           0.036 s
  | Total energy evaluation                    :        0.001 s           0.000 s
------------------------------------------------------------

------------------------------------------------------------
          Begin self-consistency iteration #    6

  Date     :  20150727, Time     :  124741.929
------------------------------------------------------------
  Evaluating new KS density.
  Integration grid: deviation in total charge (<rho> - N_e) =   1.278977E-13
  Pulay mixing of updated and previous charge densities.

  Evaluating partitioned Hartree potential by multipole expansion.
  | Analytical far-field extrapolation by fixed multipoles:
  | Hartree multipole sum: apparent total charge =  -0.503139E-05
  Summing up the Hartree potential.
  Time summed over all CPUs for potential: real work        1.918 s, elapsed        1.925 s
  | RMS charge density error from multipole expansion :   0.161385E-01

  Integrating Hamiltonian matrix: batch-based integration.
  Time summed over all CPUs for integration: real work        4.876 s, elapsed        5.015 s

  Updating Kohn-Sham eigenvalues, eigenvectors, occupation numbers, and Fermi level.
  Solving generalized eigenproblem
  Updating Kohn-Sham eigenvalues and eigenfunctions.
  Solving real generalised eigenvalue problem by standard LAPACK (fast)
  Determining occupation numbers for Kohn-Sham eigenstates.
  | Chemical potential (Fermi level) in eV                 : -.19751339E+01
  | Error in electron count due to remaining E_F inaccuracy: -.30995295E-09
  | Maximum occupation number of highest empty state:  0.00E+00

  Highest occupied state (VBM) at     -6.19855609 eV
  | Occupation number:      2.00000000

  Lowest unoccupied state (CBM) at    -1.97513387 eV
  | Occupation number:      1.00000000

  Overall HOMO-LUMO gap:      4.22342222 eV.

  Total energy components:
  | Sum of eigenvalues            :        -168.10254648 Ha       -4574.30302765 eV
  | XC energy correction          :         -37.53331498 Ha       -1021.33346548 eV
  | XC potential correction       :          47.97649661 Ha        1305.50689615 eV
  | Free-atom electrostatic energy:        -142.85330925 Ha       -3887.23632510 eV
  | Hartree energy correction     :          -6.18739950 Ha        -168.36770671 eV
  | van der Waals energy corr.    :           0.00000000 Ha           0.00000000 eV
  | Entropy correction            :          -0.00010367 Ha          -0.00282095 eV
  | ---------------------------
  | Total energy                  :        -306.70007360 Ha       -8345.73362879 eV
  | Total energy, T -> 0          :        -306.70017726 Ha       -8345.73644974 eV  <-- do not rely on this value for anything but (periodic) metals
  | Electronic free energy        :        -306.70028093 Ha       -8345.73927069 eV

  Derived energy quantities:
  | Kinetic energy                :         305.93108449 Ha        8324.80837069 eV
  | Electrostatic energy          :        -575.09784311 Ha      -15649.20853399 eV
  | Energy correction for multipole
  | error in Hartree potential    :          -0.00280255 Ha          -0.07626127 eV
  | Sum of eigenvalues per atom                           :        -351.86946367 eV
  | Total energy (T->0) per atom                          :        -641.97972690 eV  <-- do not rely on this value for anything but (periodic) metals
  | Electronic free energy per atom                       :        -641.97994390 eV

  Self-consistency convergence accuracy:
  | Change of charge density      : 0.8245E-02
  | Change of sum of eigenvalues  : -.3631E+00 eV
  | Change of total energy        : 0.9869E-04 eV

  End self-consistency iteration #     6       :  max(cpu_time)    wall_clock(cpu1)
  | Time for this iteration                    :        1.365 s           1.365 s
  | Charge density update                      :        0.446 s           0.446 s
  | Density mixing                             :        0.009 s           0.009 s
  | Hartree multipole update                   :        0.004 s           0.005 s
  | Hartree multipole summation                :        0.242 s           0.241 s
  | Integration                                :        0.628 s           0.628 s
  | Solution of K.-S. eqns.                    :        0.035 s           0.036 s
  | Total energy evaluation                    :        0.000 s           0.000 s
------------------------------------------------------------

------------------------------------------------------------
          Begin self-consistency iteration #    7

  Date     :  20150727, Time     :  124743.294
------------------------------------------------------------
  Evaluating new KS density.
  Integration grid: deviation in total charge (<rho> - N_e) =  -3.099458E-10
  Pulay mixing of updated and previous charge densities.

  Evaluating partitioned Hartree potential by multipole expansion.
  | Analytical far-field extrapolation by fixed multipoles:
  | Hartree multipole sum: apparent total charge =  -0.494909E-05
  Summing up the Hartree potential.
  Time summed over all CPUs for potential: real work        1.918 s, elapsed        1.925 s
  | RMS charge density error from multipole expansion :   0.162909E-01

  Integrating Hamiltonian matrix: batch-based integration.
  Time summed over all CPUs for integration: real work        4.878 s, elapsed        5.023 s

  Updating Kohn-Sham eigenvalues, eigenvectors, occupation numbers, and Fermi level.
  Solving generalized eigenproblem
  Updating Kohn-Sham eigenvalues and eigenfunctions.
  Solving real generalised eigenvalue problem by standard LAPACK (fast)
  Determining occupation numbers for Kohn-Sham eigenstates.
  | Chemical potential (Fermi level) in eV                 : -.19824258E+01
  | Error in electron count due to remaining E_F inaccuracy: 0.25153213E-11
  | Maximum occupation number of highest empty state:  0.00E+00

  Highest occupied state (VBM) at     -1.98242575 eV
  | Occupation number:      1.00000000

  Lowest unoccupied state (CBM) at    -1.19497858 eV
  | Occupation number:      0.00000000

  Overall HOMO-LUMO gap:      0.78744717 eV.

  Total energy components:
  | Sum of eigenvalues            :        -168.15606825 Ha       -4575.75942926 eV
  | XC energy correction          :         -37.52927310 Ha       -1021.22348044 eV
  | XC potential correction       :          47.97075481 Ha        1305.35065384 eV
  | Free-atom electrostatic energy:        -142.85330925 Ha       -3887.23632510 eV
  | Hartree energy correction     :          -6.13215636 Ha        -166.86446465 eV
  | van der Waals energy corr.    :           0.00000000 Ha           0.00000000 eV
  | Entropy correction            :          -0.00010367 Ha          -0.00282095 eV
  | ---------------------------
  | Total energy                  :        -306.70005216 Ha       -8345.73304561 eV
  | Total energy, T -> 0          :        -306.70015583 Ha       -8345.73586655 eV  <-- do not rely on this value for anything but (periodic) metals
  | Electronic free energy        :        -306.70025950 Ha       -8345.73868750 eV

  Derived energy quantities:
  | Kinetic energy                :         305.96771417 Ha        8325.80511478 eV
  | Electrostatic energy          :        -575.13849323 Ha      -15650.31467994 eV
  | Energy correction for multipole
  | error in Hartree potential    :          -0.00282417 Ha          -0.07684949 eV
  | Sum of eigenvalues per atom                           :        -351.98149456 eV
  | Total energy (T->0) per atom                          :        -641.97968204 eV  <-- do not rely on this value for anything but (periodic) metals
  | Electronic free energy per atom                       :        -641.97989904 eV

  Self-consistency convergence accuracy:
  | Change of charge density      : 0.6971E-02
  | Change of sum of eigenvalues  : -.1456E+01 eV
  | Change of total energy        : 0.5832E-03 eV

  End self-consistency iteration #     7       :  max(cpu_time)    wall_clock(cpu1)
  | Time for this iteration                    :        1.366 s           1.366 s
  | Charge density update                      :        0.445 s           0.445 s
  | Density mixing                             :        0.010 s           0.010 s
  | Hartree multipole update                   :        0.004 s           0.005 s
  | Hartree multipole summation                :        0.241 s           0.241 s
  | Integration                                :        0.629 s           0.629 s
  | Solution of K.-S. eqns.                    :        0.036 s           0.036 s
  | Total energy evaluation                    :        0.000 s           0.000 s
------------------------------------------------------------

------------------------------------------------------------
          Begin self-consistency iteration #    8

  Date     :  20150727, Time     :  124744.660
------------------------------------------------------------
  Evaluating new KS density.
  Integration grid: deviation in total charge (<rho> - N_e) =   2.508216E-12
  Pulay mixing of updated and previous charge densities.

  Evaluating partitioned Hartree potential by multipole expansion.
  | Analytical far-field extrapolation by fixed multipoles:
  | Hartree multipole sum: apparent total charge =  -0.493269E-05
  Summing up the Hartree potential.
  Time summed over all CPUs for potential: real work        1.917 s, elapsed        1.925 s
  | RMS charge density error from multipole expansion :   0.163034E-01

  Integrating Hamiltonian matrix: batch-based integration.
  Time summed over all CPUs for integration: real work        4.872 s, elapsed        5.024 s

  Updating Kohn-Sham eigenvalues, eigenvectors, occupation numbers, and Fermi level.
  Solving generalized eigenproblem
  Updating Kohn-Sham eigenvalues and eigenfunctions.
  Solving real generalised eigenvalue problem by standard LAPACK (fast)
  Determining occupation numbers for Kohn-Sham eigenstates.
  | Chemical potential (Fermi level) in eV                 : -.19891038E+01
  | Error in electron count due to remaining E_F inaccuracy: 0.00000000E+00
  | Maximum occupation number of highest empty state:  0.00E+00

  Highest occupied state (VBM) at     -1.98910382 eV
  | Occupation number:      1.00000000

  Lowest unoccupied state (CBM) at    -1.98910382 eV
  | Occupation number:      1.00000000

  Overall HOMO-LUMO gap:      0.00000000 eV.

  Total energy components:
  | Sum of eigenvalues            :        -168.17274962 Ha       -4576.21335232 eV
  | XC energy correction          :         -37.52779361 Ha       -1021.18322127 eV
  | XC potential correction       :          47.96875298 Ha        1305.29618129 eV
  | Free-atom electrostatic energy:        -142.85330925 Ha       -3887.23632510 eV
  | Hartree energy correction     :          -6.11494866 Ha        -166.39621919 eV
  | van der Waals energy corr.    :           0.00000000 Ha           0.00000000 eV
  | Entropy correction            :          -0.00010367 Ha          -0.00282095 eV
  | ---------------------------
  | Total energy                  :        -306.70004816 Ha       -8345.73293658 eV
  | Total energy, T -> 0          :        -306.70015183 Ha       -8345.73575753 eV  <-- do not rely on this value for anything but (periodic) metals
  | Electronic free energy        :        -306.70025549 Ha       -8345.73857847 eV

  Derived energy quantities:
  | Kinetic energy                :         305.97020570 Ha        8325.87291277 eV
  | Electrostatic energy          :        -575.14246025 Ha      -15650.42262808 eV
  | Energy correction for multipole
  | error in Hartree potential    :          -0.00284212 Ha          -0.07733804 eV
  | Sum of eigenvalues per atom                           :        -352.01641172 eV
  | Total energy (T->0) per atom                          :        -641.97967366 eV  <-- do not rely on this value for anything but (periodic) metals
  | Electronic free energy per atom                       :        -641.97989065 eV

  Self-consistency convergence accuracy:
  | Change of charge density      : 0.1888E-02
  | Change of sum of eigenvalues  : -.4539E+00 eV
  | Change of total energy        : 0.1090E-03 eV

  End self-consistency iteration #     8       :  max(cpu_time)    wall_clock(cpu1)
  | Time for this iteration                    :        1.368 s           1.367 s
  | Charge density update                      :        0.445 s           0.445 s
  | Density mixing                             :        0.011 s           0.011 s
  | Hartree multipole update                   :        0.004 s           0.005 s
  | Hartree multipole summation                :        0.241 s           0.241 s
  | Integration                                :        0.629 s           0.629 s
  | Solution of K.-S. eqns.                    :        0.036 s           0.036 s
  | Total energy evaluation                    :        0.001 s           0.000 s
------------------------------------------------------------

------------------------------------------------------------
          Begin self-consistency iteration #    9

  Date     :  20150727, Time     :  124746.028
------------------------------------------------------------
  Evaluating new KS density.
  Integration grid: deviation in total charge (<rho> - N_e) =  -2.131628E-14
  Pulay mixing of updated and previous charge densities.

  Evaluating partitioned Hartree potential by multipole expansion.
  | Analytical far-field extrapolation by fixed multipoles:
  | Hartree multipole sum: apparent total charge =  -0.492717E-05
  Summing up the Hartree potential.
  Time summed over all CPUs for potential: real work        1.918 s, elapsed        1.926 s
  | RMS charge density error from multipole expansion :   0.162848E-01

  Integrating Hamiltonian matrix: batch-based integration.
  Time summed over all CPUs for integration: real work        4.876 s, elapsed        5.025 s

  Updating Kohn-Sham eigenvalues, eigenvectors, occupation numbers, and Fermi level.
  Solving generalized eigenproblem
  Updating Kohn-Sham eigenvalues and eigenfunctions.
  Solving real generalised eigenvalue problem by standard LAPACK (fast)
  Determining occupation numbers for Kohn-Sham eigenstates.
  | Chemical potential (Fermi level) in eV                 : -.19900583E+01
  | Error in electron count due to remaining E_F inaccuracy: 0.00000000E+00
  | Maximum occupation number of highest empty state:  0.00E+00

  Highest occupied state (VBM) at     -1.99005827 eV
  | Occupation number:      1.00000000

  Lowest unoccupied state (CBM) at    -1.99005827 eV
  | Occupation number:      1.00000000

  Overall HOMO-LUMO gap:      0.00000000 eV.

  Total energy components:
  | Sum of eigenvalues            :        -168.17298673 Ha       -4576.21980435 eV
  | XC energy correction          :         -37.52771054 Ha       -1021.18096083 eV
  | XC potential correction       :          47.96865324 Ha        1305.29346731 eV
  | Free-atom electrostatic energy:        -142.85330925 Ha       -3887.23632510 eV
  | Hartree energy correction     :          -6.11469383 Ha        -166.38928479 eV
  | van der Waals energy corr.    :           0.00000000 Ha           0.00000000 eV
  | Entropy correction            :          -0.00010367 Ha          -0.00282095 eV
  | ---------------------------
  | Total energy                  :        -306.70004710 Ha       -8345.73290776 eV
  | Total energy, T -> 0          :        -306.70015077 Ha       -8345.73572871 eV  <-- do not rely on this value for anything but (periodic) metals
  | Electronic free energy        :        -306.70025443 Ha       -8345.73854965 eV

  Derived energy quantities:
  | Kinetic energy                :         305.97743256 Ha        8326.06956579 eV
  | Electrostatic energy          :        -575.14976912 Ha      -15650.62151272 eV
  | Energy correction for multipole
  | error in Hartree potential    :          -0.00283778 Ha          -0.07721985 eV
  | Sum of eigenvalues per atom                           :        -352.01690803 eV
  | Total energy (T->0) per atom                          :        -641.97967144 eV  <-- do not rely on this value for anything but (periodic) metals
  | Electronic free energy per atom                       :        -641.97988843 eV

  Self-consistency convergence accuracy:
  | Change of charge density      : 0.7393E-03
  | Change of sum of eigenvalues  : -.6452E-02 eV
  | Change of total energy        : 0.2882E-04 eV

  End self-consistency iteration #     9       :  max(cpu_time)    wall_clock(cpu1)
  | Time for this iteration                    :        1.371 s           1.371 s
  | Charge density update                      :        0.448 s           0.447 s
  | Density mixing                             :        0.013 s           0.013 s
  | Hartree multipole update                   :        0.004 s           0.004 s
  | Hartree multipole summation                :        0.241 s           0.241 s
  | Integration                                :        0.630 s           0.629 s
  | Solution of K.-S. eqns.                    :        0.035 s           0.036 s
  | Total energy evaluation                    :        0.000 s           0.000 s
------------------------------------------------------------

------------------------------------------------------------
          Begin self-consistency iteration #   10

  Date     :  20150727, Time     :  124747.399
------------------------------------------------------------
  Evaluating new KS density.
  Integration grid: deviation in total charge (<rho> - N_e) =   0.000000E+00
[...]
  | Electronic free energy        :        -306.70224114 Ha       -8345.79261061 eV

  Derived energy quantities:
  | Kinetic energy                :         305.97707774 Ha        8326.05991053 eV
  | Electrostatic energy          :        -575.14941287 Ha      -15650.61181858 eV
  | Energy correction for multipole
  | error in Hartree potential    :          -0.00284879 Ha          -0.07751951 eV
  | Sum of eigenvalues per atom                           :        -352.01635671 eV
  | Total energy (T->0) per atom                          :        -641.98382997 eV  <-- do not rely on this value for anything but (periodic) metals
  | Electronic free energy per atom                       :        -641.98404697 eV

  atomic forces [eV/Ang]:
  -----------------------
  atom #    1
   Hellmann-Feynman + Multipole  : -.234285E+01 -.790408E+01 -.711935E+01
   Pulay + GGA                   : 0.240938E+01 0.866317E+01 0.673761E+01
   Van der Waals               : 0.558645E-02 -.183075E-02 0.870271E-02
   ----------------------------------------------------------------
   Total forces(   1)            : 0.721116E-01 0.757256E+00 -.373036E+00
  atom #    2
   Hellmann-Feynman + Multipole  : 0.788830E-01 -.367056E+00 0.118590E+00
   Pulay + GGA                   : -.258370E-01 0.606853E-01 -.362989E-01
   Van der Waals               : 0.242055E-02 0.214237E-02 0.444978E-02
   ----------------------------------------------------------------
   Total forces(   2)            : 0.554666E-01 -.304228E+00 0.867412E-01
  atom #    3
   Hellmann-Feynman + Multipole  : -.375516E+00 -.166837E+00 0.101621E+00
   Pulay + GGA                   : 0.150644E+00 0.810408E-02 -.161601E-01
   Van der Waals               : 0.267736E-02 -.478576E-02 0.264444E-02
   ----------------------------------------------------------------
   Total forces(   3)            : -.222195E+00 -.163519E+00 0.881053E-01
  atom #    4
   Hellmann-Feynman + Multipole  : 0.791076E-01 0.969131E-02 0.532520E-01
   Pulay + GGA                   : -.702679E-01 -.504711E-01 0.132652E+00
   Van der Waals               : 0.281328E-02 0.807044E-05 0.383454E-02
   ----------------------------------------------------------------
   Total forces(   4)            : 0.116530E-01 -.407717E-01 0.189739E+00
  atom #    5
   Hellmann-Feynman + Multipole  : -.638322E+01 -.719753E+01 0.892915E+01
   Pulay + GGA                   : 0.691533E+01 0.661168E+01 -.578236E+01
   Van der Waals               : -.912689E-03 0.503439E-02 0.120477E-02
   ----------------------------------------------------------------
   Total forces(   5)            : 0.531197E+00 -.580813E+00 0.314799E+01
  atom #    6
   Hellmann-Feynman + Multipole  : -.712777E-01 -.164732E+00 -.110393E+00
   Pulay + GGA                   : 0.460640E-01 0.120320E+00 0.419593E-01
   Van der Waals               : 0.561558E-03 0.719445E-02 0.352712E-02
   ----------------------------------------------------------------
   Total forces(   6)            : -.246521E-01 -.372178E-01 -.649065E-01
  atom #    7
   Hellmann-Feynman + Multipole  : -.321703E+00 0.420034E+00 -.280785E+01
   Pulay + GGA                   : -.365858E-01 0.217343E-01 -.139342E+00
   Van der Waals               : -.120153E-02 0.256512E-02 -.742849E-03
   ----------------------------------------------------------------
   Total forces(   7)            : -.359491E+00 0.444334E+00 -.294793E+01
  atom #    8
   Hellmann-Feynman + Multipole  : 0.406138E+01 -.834383E+01 -.889849E+01
   Pulay + GGA                   : -.560170E+01 0.951838E+01 0.105143E+02
   Van der Waals               : -.270858E-02 -.211855E-02 -.420462E-02
   ----------------------------------------------------------------
   Total forces(   8)            : -.154303E+01 0.117243E+01 0.161161E+01
  atom #    9
   Hellmann-Feynman + Multipole  : -.386907E+00 0.275474E+00 -.200953E+01
   Pulay + GGA                   : 0.100223E-01 -.117108E-01 0.139489E+00
   Van der Waals               : 0.158674E-03 -.381108E-03 -.176680E-02
   ----------------------------------------------------------------
   Total forces(   9)            : -.376726E+00 0.263382E+00 -.187181E+01
  atom #   10
   Hellmann-Feynman + Multipole  : 0.164731E+01 -.169769E+01 0.533408E+00
   Pulay + GGA                   : -.111787E+00 0.927502E-01 -.227871E-01
   Van der Waals               : -.139358E-02 -.224802E-02 -.424313E-02
   ----------------------------------------------------------------
   Total forces(  10)            : 0.153413E+01 -.160719E+01 0.506378E+00
  atom #   11
   Hellmann-Feynman + Multipole  : -.225010E+01 -.320834E+01 -.158295E+02
   Pulay + GGA                   : 0.361868E+01 0.385388E+01 0.136612E+02
   Van der Waals               : -.199782E-02 -.163630E-02 -.738897E-02
   ----------------------------------------------------------------
   Total forces(  11)            : 0.136658E+01 0.643900E+00 -.217568E+01
  atom #   12
   Hellmann-Feynman + Multipole  : -.451265E+00 -.275098E+00 0.204649E+00
   Pulay + GGA                   : 0.929084E-01 0.648640E-01 0.571708E-01
   Van der Waals               : -.297134E-02 -.160676E-02 -.546826E-03
   ----------------------------------------------------------------
   Total forces(  12)            : -.361328E+00 -.211841E+00 0.261273E+00
  atom #   13
   Hellmann-Feynman + Multipole  : -.626106E+00 -.316341E+00 0.149338E+01
   Pulay + GGA                   : -.476987E-01 -.193064E-01 0.606939E-01
   Van der Waals               : -.303233E-02 -.233715E-02 -.547016E-02
   ----------------------------------------------------------------
   Total forces(  13)            : -.676837E+00 -.337985E+00 0.154860E+01
  Timings for vdw_correction_hirshfeld (Tkatchenko-Scheffler 2009):
  | CPU time:        3.694 s, Wall clock time:        3.695 s.
  Removing unitary transformations (pure translations, rotations) from forces on atoms.
  Atomic forces before filtering:
  | Net force on center of mass :  0.688157E-02 -.225797E-02 0.707339E-02 eV/A
  | Net torque on center of mass:  -.799187E-03 -.729223E-02 0.506692E-02 eV
  Atomic forces after filtering:
  | Net force on center of mass :  -.892031E-16 0.446015E-15 -.178406E-15 eV/A
  | Net torque on center of mass:  0.245462E-14 0.755268E-15 0.377634E-15 eV
 
  Energy and forces in a compact form:
  | Total energy uncorrected      :         -0.834578696871204E+04 eV
  | Total energy corrected        :         -0.834578978965996E+04 eV  <-- do not rely on this value for anything but (periodic) metals
  | Electronic free energy        :         -0.834579261060788E+04 eV
  Total atomic forces (unitary forces cleaned) [eV/Ang]:
  |   1          0.712405274176414E-01          0.757448627756545E+00         -0.373539535917731E+00
  |   2          0.546737456585081E-01         -0.303975147164577E+00          0.862755383053595E-01
  |   3         -0.223028452485810E+00         -0.163448646663918E+00          0.875100490177178E-01
  |   4          0.108541726222675E-01         -0.405301462667784E-01          0.189265647293685E+00
  |   5          0.530518648177438E+00         -0.580474221249142E+00          0.314758295963721E+01
  |   6         -0.251994042877110E-01         -0.369329265431217E-01         -0.653682029205735E-01
  |   7         -0.360234785565336E+00          0.444680838856220E+00         -0.294833365301760E+01
  |   8         -0.154332340214291E+01          0.117263031371761E+01          0.161106218742406E+01
  |   9         -0.376931614057376E+00          0.263576682277960E+00         -0.187236504323118E+01
  |  10          0.153391970876847E+01         -0.160689633808092E+01          0.505892732238105E+00
  |  11          0.136624050971965E+01          0.643853252615161E+00         -0.217639759999475E+01
  |  12         -0.361576737588451E+00         -0.211977924292268E+00          0.260480097024371E+00
  |  13         -0.677152916236385E+00         -0.337954364962766E+00          0.154793482414133E+01
 
  ------------------------------------ 
  Start decomposition of the XC Energy 
  ------------------------------------ 
  Hartree-Fock part   :          0.000000000 Ha              0.000000000 eV
  ------------------------------------ 
  X Energy            :        -36.201825394 Ha           -985.101790388 eV
  C Energy GGA        :         -1.325886977 Ha            -36.079220328 eV
  Total XC Energy     :        -37.527712370 Ha          -1021.181010716 eV
  LDA X and C from self-consistent density 
  X Energy LDA        :        -32.621433414 Ha           -887.674367566 eV
  C Energy LDA        :         -2.676293370 Ha            -72.825647927 eV
  ------------------------------------ 
  End decomposition of the XC Energy 
  ------------------------------------ 
  Performing Hirshfeld analysis of fragment charges and moments.
  ----------------------------------------------------------------------
  | Atom     1: O
  |   Hirshfeld charge        :     -0.12503096
  |   Free atom volume        :     23.95238533
  |   Hirshfeld volume        :     22.95433311
  |   Hirshfeld dipole vector :      0.00200505       0.03964552       0.02145376
  |   Hirshfeld dipole moment :      0.04512262
  |   Hirshfeld second moments:      0.06245012      -0.00415934      -0.00427191
  |                                 -0.00415934       0.01319541      -0.02662993
  |                                 -0.00427191      -0.02662993       0.03961218
  ----------------------------------------------------------------------
  | Atom     2: H
  |   Hirshfeld charge        :      0.10215035
  |   Free atom volume        :     10.44207651
  |   Hirshfeld volume        :     10.71596526
  |   Hirshfeld dipole vector :     -0.00242313       0.01475214       0.00011884
  |   Hirshfeld dipole moment :      0.01495029
  |   Hirshfeld second moments:      0.02231944       0.01213822       0.01047778
  |                                  0.01213822       0.01366917       0.00661956
  |                                  0.01047778       0.00661956       0.03692440
  ----------------------------------------------------------------------
  | Atom     3: H
  |   Hirshfeld charge        :      0.10870732
  |   Free atom volume        :     10.44207651
  |   Hirshfeld volume        :     12.46064012
  |   Hirshfeld dipole vector :      0.02262501       0.02411764       0.01197206
  |   Hirshfeld dipole moment :      0.03516933
  |   Hirshfeld second moments:     -0.01182056      -0.00618523       0.00313692
  |                                 -0.00618523       0.00106195       0.00811854
  |                                  0.00313692       0.00811854       0.00574394
  ----------------------------------------------------------------------
  | Atom     4: H
  |   Hirshfeld charge        :      0.09611833
  |   Free atom volume        :     10.44207651
  |   Hirshfeld volume        :     12.88796039
  |   Hirshfeld dipole vector :     -0.00239333       0.01862760       0.01566996
  |   Hirshfeld dipole moment :      0.02445942
  |   Hirshfeld second moments:     -0.00510727       0.00637266       0.01508573
  |                                  0.00637266      -0.00231044       0.01027760
  |                                  0.01508573       0.01027760      -0.02843266
  ----------------------------------------------------------------------
  | Atom     5: O
  |   Hirshfeld charge        :     -0.21256934
  |   Free atom volume        :     23.95238533
  |   Hirshfeld volume        :     22.87854917
  |   Hirshfeld dipole vector :      0.03618275       0.00236263      -0.02266624
  |   Hirshfeld dipole moment :      0.04276133
  |   Hirshfeld second moments:     -0.01736951       0.00332947       0.04412005
  |                                  0.00332947       0.05079551       0.00736616
  |                                  0.04412005       0.00736616       0.04577406
  ----------------------------------------------------------------------
  | Atom     6: H
  |   Hirshfeld charge        :      0.11096440
  |   Free atom volume        :     10.44207651
  |   Hirshfeld volume        :     11.50278631
  |   Hirshfeld dipole vector :      0.03042745       0.04217516       0.02585722
  |   Hirshfeld dipole moment :      0.05807899
  |   Hirshfeld second moments:     -0.00445032      -0.00856960       0.02460122
  |                                 -0.00856960       0.02209212      -0.00285498
  |                                  0.02460122      -0.00285498       0.03658934
  ----------------------------------------------------------------------
  | Atom     7: H
  |   Hirshfeld charge        :      0.10817710
  |   Free atom volume        :     10.44207651
  |   Hirshfeld volume        :     11.75779860
  |   Hirshfeld dipole vector :     -0.01409639       0.00188301      -0.06316040
  |   Hirshfeld dipole moment :      0.06474172
  |   Hirshfeld second moments:      0.00308565       0.00456640       0.02198282
  |                                  0.00456640       0.03484047       0.00860911
  |                                  0.02198282       0.00860911       0.01754103
  ----------------------------------------------------------------------
  | Atom     8: O
  |   Hirshfeld charge        :     -0.24641835
  |   Free atom volume        :     23.95238533
  |   Hirshfeld volume        :     22.88523846
  |   Hirshfeld dipole vector :      0.02688335       0.05085945       0.01618415
  |   Hirshfeld dipole moment :      0.05976056
  |   Hirshfeld second moments:      0.01270116      -0.04015732       0.00224561
  |                                 -0.04015732      -0.02959047      -0.03064306
  |                                  0.00224561      -0.03064306       0.04391384
  ----------------------------------------------------------------------
  | Atom     9: H
  |   Hirshfeld charge        :      0.12567712
  |   Free atom volume        :     10.44207651
  |   Hirshfeld volume        :      9.02061076
  |   Hirshfeld dipole vector :      0.02849491      -0.00650069       0.09535831
  |   Hirshfeld dipole moment :      0.09973679
  |   Hirshfeld second moments:      0.07363685      -0.01736368      -0.00017071
  |                                 -0.01736368       0.05472846      -0.01789211
  |                                 -0.00017071      -0.01789211       0.06755591
  ----------------------------------------------------------------------
  | Atom    10: H
  |   Hirshfeld charge        :      0.11083290
  |   Free atom volume        :     10.44207651
  |   Hirshfeld volume        :     10.24405194
  |   Hirshfeld dipole vector :     -0.03899025       0.06669804      -0.00801581
  |   Hirshfeld dipole moment :      0.07767317
  |   Hirshfeld second moments:      0.03535101      -0.00857018      -0.01094834
  |                                 -0.00857018       0.02367758      -0.00528113
  |                                 -0.01094834      -0.00528113       0.05899154
  ----------------------------------------------------------------------
  | Atom    11: O
  |   Hirshfeld charge        :     -0.35581712
  |   Free atom volume        :     23.95238533
  |   Hirshfeld volume        :     24.00906330
  |   Hirshfeld dipole vector :      0.01399626       0.01572332       0.08106276
  |   Hirshfeld dipole moment :      0.08375135
  |   Hirshfeld second moments:      0.00625611       0.06082760      -0.00838362
  |                                  0.06082760      -0.05393131      -0.00188106
  |                                 -0.00838362      -0.00188106      -0.05168918
  ----------------------------------------------------------------------
  | Atom    12: H
  |   Hirshfeld charge        :      0.11794086
  |   Free atom volume        :     10.44207651
  |   Hirshfeld volume        :      8.31911746
  |   Hirshfeld dipole vector :      0.09477911       0.06299016       0.04084123
  |   Hirshfeld dipole moment :      0.12090842
  |   Hirshfeld second moments:      0.08544936       0.01713396      -0.01220962
  |                                  0.01713396       0.06573738      -0.00938234
  |                                 -0.01220962      -0.00938234       0.07494780
  ----------------------------------------------------------------------
  | Atom    13: H
  |   Hirshfeld charge        :      0.05926709
  |   Free atom volume        :     10.44207651
  |   Hirshfeld volume        :      9.61587090
  |   Hirshfeld dipole vector :     -0.02100639      -0.00878833       0.04472524
  |   Hirshfeld dipole moment :      0.05018815
  |   Hirshfeld second moments:      0.04296478       0.00512024       0.02792948
  |                                  0.00512024       0.02885865       0.01128588
  |                                  0.02792948       0.01128588       0.03195870
  ----------------------------------------------------------------------


------------------------------------------------------------------------------
  Final output of selected total energy values:

  The following output summarizes some interesting total energy values
  at the end of a run (AFTER all relaxation, molecular dynamics, etc.).

  | Total energy of the DFT / Hartree-Fock s.c.f. calculation      :          -8345.786968712 eV
  | Final zero-broadening corrected energy (caution - metals only) :          -8345.789789660 eV
  | For reference only, the value of 1 Hartree used in FHI-aims is :             27.211384500 eV

  Before relying on these values, please be sure to understand exactly which
  total energy value is referred to by a given number. Different objects may
  all carry the same name 'total energy'. Definitions:

  Total energy of the DFT / Hartree-Fock s.c.f. calculation:
  | Note that this energy does not include ANY quantities calculated after the
  | s.c.f. cycle, in particular not ANY RPA, MP2, etc. many-body perturbation terms.

  Final zero-broadening corrected energy:
  | For metallic systems only, a broadening of the occupation numbers at the Fermi
  | level can be extrapolated back to zero broadening by an electron-gas inspired
  | formula. For all systems that are not real metals, this value can be
  | meaningless and should be avoided.

------------------------------------------------------------------------------

------------------------------------------------------------
          Leaving FHI-aims.
          Date     :  20150727, Time     :  124759.812

          Computational steps:
          | Number of self-consistency cycles          :           16

          Detailed time accounting                     :  max(cpu_time)    wall_clock(cpu1)
          | Total time                                 :       26.636 s          26.660 s
          | Preparation time                           :        0.172 s           0.499 s
          | Grid partitioning                          :        0.124 s           0.124 s
          | Preloading free-atom quantities on grid    :        0.013 s           0.014 s
          | Free-atom superposition energy             :        0.052 s           0.052 s
          | Total time for integrations                :       11.033 s          11.034 s
          | Total time for solution of K.-S. equations :        0.703 s           0.707 s
          | Total time for density & force components  :        9.057 s           9.056 s
          | Total time for mixing                      :        0.174 s           0.173 s
          | Total time for Hartree multipole update    :        0.068 s           0.071 s
          | Total time for Hartree multipole sum       :        4.659 s           4.660 s
          | Total time for total energy evaluation     :        0.006 s           0.005 s
          | Total time for scaled ZORA corrections     :        0.000 s           0.000 s
          | Total time for TS (2009) vdW correction    :        0.040 s           0.040 s

          Have a nice day.
------------------------------------------------------------
