  MPI-parallelism will be employed.
------------------------------------------------------------
          Invoking FHI-aims ...
          Version 081213
          Compiled on 2013/08/29 at 17:41:06 on host generoso.

          When using FHI-aims, please cite the following reference:

          Volker Blum, Ralf Gehrke, Felix Hanke, Paula Havu,
          Ville Havu, Xinguo Ren, Karsten Reuter, and Matthias Scheffler,
          'Ab Initio Molecular Simulations with Numeric Atom-Centered Orbitals: FHI-aims',
          Computer Physics Communications 180, 2175-2196 (2009)

          For any questions about FHI-aims, please visit the aimsclub website
          with its forums and wiki. Contributions to both the forums and the
          wiki are warmly encouraged - they are for you, and everyone is welcome there.

------------------------------------------------------------

  Date     :  20150727, Time     :  115449.263
  Time zero on CPU 1             :   0.439930000000000E-01  s.
  Internal wall clock time zero  :           207230089.263  s.

  Using        8 parallel tasks.
  Task        0 on host gen59 reporting.
  Task        1 on host gen59 reporting.
  Task        2 on host gen59 reporting.
  Task        3 on host gen59 reporting.
  Task        4 on host gen59 reporting.
  Task        5 on host gen59 reporting.
  Task        6 on host gen59 reporting.
  Task        7 on host gen59 reporting.

  Performing system and environment tests:
  | Environment variable OMP_NUM_THREADS correctly set to 1.
  | Checking for scalapack...
  | No scalapack compiled in.

  Obtaining array dimensions for all initial allocations:
  
  -----------------------------------------------------------------------
  Parsing control.in (first pass over file, find array dimensions only).
  The contents of control.in will be repeated verbatim below
  unless switched off by setting 'verbatim_writeout .false.' .
  in the first line of control.in .
  -----------------------------------------------------------------------
  
  #########################################################################################
  #
  #  Volker Blum, FHI 2008 : Test run input file control.in
  #
  #########################################################################################
  #
  #  Physical model
  #
    xc                 rpbe
    spin               none
    relativistic       atomic_zora scalar
    charge             0.
   vdw_correction_hirshfeld
  #
  #  SCF convergence
  #
    occupation_type    gaussian 0.01
    mixer              pulay
      n_max_pulay        10
      charge_mix_param   0.1
    sc_accuracy_rho    5E-5
    sc_accuracy_eev    5E-3
    sc_accuracy_etot   5E-6
    sc_iter_limit      3000
  #
  #  Eigenvalue solver
  #
    KS_method          lapack
      empty_states       8
      basis_threshold    0.e-5
  #
  #  Efficiency
  #
  #   all previous settings are now default, except stratmann still
  #   undecided. Continue to handle stratmann with care, if at all.
  #
  #  partition_type stratmann
    partition_type rho_r2
  #  hartree_partition_type stratmann
  #
  #  Oprions for large clusters (100's of atoms: memory saving / better scaling)
  #
  # for periodic systems:
  #
    density_update_method orbital
    packed_matrix_format none
  #  k_grid 6 6 6
  #  output k_eigenvalue 1
  #  distributed_spline_storage .true.
  #
  #  Relaxation
  #
  #  relax_geometry   bfgs 5.e-3
    sc_accuracy_forces 5.E-4
    final_forces_cleaned .true.
  #
  #  Output options
  #
  #  output mulliken
    output Hirshfeld
  #  output dipole
  
  #harmonic_length_scale 0.001
  
  ################################################################################
  #
  #  FHI-aims code project
  #  VB, Fritz-Haber Institut, 2007
  #
  #  Suggested "safe" defaults for H atom (to be pasted into control.in file)
  #  Basis constructed for a non-relativistic H2 molecule using the
  #  PW-LDA functional.
  #
  ################################################################################
    species        H
  #     global species definitions
      nucleus             1
      cut_pot             4.0  2.0  1.0
      cut_free_atom       finite 8.0
      logarithmic         0.00010000 100.00  1.0123
      basis_dep_cutoff    1d-4  # 1d-4 is safe default - please check 5d-4 if you wish!
      radial_base         24 7.0
      radial_multiplier   2
      angular_grids       specified
        division   0.2783  110
        division   0.3822  194
        division   0.5626  302
  #      division   0.5922  434
  #      division   0.6227  590
  #      division   0.7206  770
        outer_grid  302
      l_hartree           4
  ################################################################################
  #
  #  Definition of "minimal" basis
  #
  ################################################################################
  #     valence basis states
      valence      1  s   1.
  #     ion occupancy
      ion_occ      1  s   0.5
  ################################################################################
  #
  #  Suggested additional basis functions. For production calculations,
  #  uncomment them one after another (the most important basis functions are
  #  listed first).
  #
  ################################################################################
  #  "First tier" - improvements: -1014.90 meV to -62.69 meV
       hydro 2 s 2.1
       hydro 2 p 3.5
  #  "Second tier" - improvements: -12.89 meV to -1.83 meV
       hydro 1 s 0.85
       hydro 2 p 3.7
       hydro 2 s 1.2
       hydro 3 d 7
  #  "Third tier" - improvements: -0.25 meV to -0.12 meV
  #     hydro 4 f 11.2
  #     hydro 3 p 4.8
  #     hydro 4 d 9
  #     hydro 3 s 3.2
  
  ################################################################################
  #
  #  FHI-aims code project
  #  VB, Fritz-Haber Institut, 2007
  #
  #  Suggested "safe" defaults for O atom (to be pasted into control.in file)
  #  All values have been tested for a non-relativistic, non-spinpolarized O2
  #  molecule using the PW-LDA functional. Validity for PBE is expected.
  #
  #  Constructed for dimers: 1.0 A, 1.208 A, 1.5 A, 2.0 A, 3.0 A
  #
  ################################################################################
    species        O
  #     global species definitions
      nucleus             8
      mass                15.9994
      l_hartree           4
      cut_pot             4.0  2.0  1.0
      cut_free_atom       finite 8.0
      basis_dep_cutoff    1d-4  # 1d-4 is safe default - please check 5d-4 if you wish!
      logarithmic         0.00010000 100.00  1.0123
      radial_base         36 7.0
      radial_multiplier   2
       angular_grids specified
        division   0.4087  110
        division   0.5181  194
        division   0.6184  302
  #      division   0.7315  434
  #      division   0.7934  590
  #      division   0.9656  770
  #      division   1.4041  974
  #      outer_grid 974
        outer_grid 302
  ################################################################################
  #
  #  Definition of "minimal" basis
  #
  ################################################################################
  #     valence basis states
      valence      2  s   2.
      valence      2  p   4.
  #     ion occupancy
      ion_occ      2  s   1.
      ion_occ      2  p   3.
  ################################################################################
  #
  #  Suggested additional basis functions. For production calculations,
  #  uncomment them one after another (the most important basis functions are
  #  listed first).
  #
  ################################################################################
  #  "First tier" - improvements: -699.05 meV to -159.38 meV
       hydro 2 p 1.8
       hydro 3 d 7.6
       hydro 3 s 6.4
  #  "Second tier" - improvements: -49.91 meV to -5.39 meV
       hydro 4 f 11.6
       hydro 3 p 6.2
       hydro 3 d 5.6
       hydro 5 g 17.6
       hydro 1 s 0.75
  #  "Third tier" - improvements: -2.83 meV to -0.50 meV
  #     ionic 2 p auto
  #     hydro 4 f 10.8
  #     hydro 4 d 4.7
  #     hydro 2 s 6.8
  #  "Fourth tier" - improvements: -0.40 meV to -0.12 meV
  #     hydro 3 p 5
  #     hydro 3 s 3.3
  #     hydro 5 g 15.6
  #     hydro 4 f 17.6
  #     hydro 4 d 14
  # Further basis functions - -0.08 meV and below
  #     hydro 3 s 2.1
  #     hydro 4 d 11.6
  #     hydro 3 p 16
  #     hydro 2 s 17.2
  
  
  -----------------------------------------------------------------------
  Completed first pass over input file control.in .
  -----------------------------------------------------------------------
  
  
  -----------------------------------------------------------------------
  Parsing geometry.in (first pass over file, find array dimensions only).
  The contents of geometry.in will be repeated verbatim below
  unless switched off by setting 'verbatim_writeout .false.' .
  in the first line of geometry.in .
  -----------------------------------------------------------------------
  
  atom      -4.053030000      0.065001000     -1.525160000  O
  atom      -4.566710000      0.974813000     -1.912820000  H
  atom      -3.067820000      0.330172000     -1.477310000  H
  atom      -4.370360000     -0.049164000     -0.572274000  H
  atom      -4.581760000     -0.256435000      0.939478000  O
  atom      -4.349860000      0.471090000      1.504340000  H
  atom      -5.393870000     -0.726611000      1.228070000  H
  atom      -5.293160000      2.192130000     -2.328800000  O
  atom      -4.829300000      2.988660000     -1.973850000  H
  atom      -5.428570000      2.328640000     -3.235170000  H
  atom      -1.645860000      0.870179000     -1.502250000  O
  atom      -1.568890000      1.501730000     -0.721051000  H
  atom      -0.824432000      0.282220000     -1.377720000  H
  atom      -1.975360000      2.858040000      0.453140000  O
  atom      -1.223550000      3.375850000      0.786238000  H
  atom      -2.537520000      2.567960000      1.156120000  H
  
  -----------------------------------------------------------------------
  Completed first pass over input file geometry.in .
  -----------------------------------------------------------------------
  
 
  Basic array size parameters: 
  | Number of species                 :        2
  | Number of atoms                   :       16
  | Max. basis fn. angular momentum   :        4
  | Max. atomic/ionic basis occupied n:        2
  | Max. number of basis fn. types    :        2
  | Max. radial fns per species/type  :        8
  | Max. logarithmic grid size        :     1301
  | Max. radial integration grid size :       73
  | Max. angular integration grid size:      302
  | Max. angular grid division number :        8
  | Radial grid for Hartree potential :     1301
  | Number of spin channels           :        1

------------------------------------------------------------
          Reading file control.in.
------------------------------------------------------------
  XC: Using RPBE gradient-corrected functionals.
  Spin treatment: No spin polarisation.
  Scalar relativistic treatment of kinetic energy: on-site free-atom approximation to ZORA.
  Charge =   0.000000E+00: Neutral system requested explicitly.
  Using non-empirical van der Waals correction (Hirshfeld partitioning):
  Occupation type: Gaussian broadening, width =   0.100000E-01 eV.
  Using pulay charge density mixing.
  Pulay mixing - number of memorized iterations:   10
  Charge density mixing - mixing parameter:     0.1000
  Convergence accuracy of self-consistent charge density: 0.5000E-04
  Convergence accuracy of sum of eigenvalues: 0.5000E-02
  Convergence accuracy of total energy: 0.5000E-05
  Maximum number of s.-c. iterations  :  3000
  Kohn-Sham eigenvalues and eigenfunctions calculated by lapack diagonalisation (D&C).
  Number of empty states per atom:        8
  Threshold for basis singularities: 0.0000E+00
  Partition function in integrals calculations: rho / r^2
 Using packed matrix format           0
  Convergence accuracy of forces: 0.5000E-03
  Cleaning forces before final output.
  Hirshfeld charge analysis will be performed.
 
  Reading configuration options for species H                   .
  | Found nuclear charge :   1.0000
  | Found cutoff potl. onset [A], width [A], scale factor :    4.00000    2.00000    1.00000
  | Found cutoff specification for free atom: Cutoff potential begins at    8.00000 A.
  | Found logarithmic grid data [bohr] : 0.1000E-03 0.1000E+03 0.1012E+01
  | Threshold for basis-dependent cutoff potential is   0.100000E-03
  | Found data for basic radial integration grid :    24 points, outermost radius =    7.000 A
  | Found multiplier for basic radial grid :   2
  | Found angular grid specification: user-specified.
  | Specified grid contains     4 separate shells.
  | Check grid settings after all constraints further below.
  | Found l_max for Hartree potential  :   4
  | Found free-atom valence shell :  1 s   1.000
  | No ionic wave fns used. Skipping ion_occ.
  | Found hydrogenic basis function :  2 s   2.100
  | Found hydrogenic basis function :  2 p   3.500
  | Found hydrogenic basis function :  1 s   0.850
  | Found hydrogenic basis function :  2 p   3.700
  | Found hydrogenic basis function :  2 s   1.200
  | Found hydrogenic basis function :  3 d   7.000
  Species H                   : Missing cutoff potential type.
  Defaulting to exp(1/x)/(1-x)^2 type cutoff potential.
  Species H : On-site basis accuracy parameter (for Gram-Schmidt orthonormalisation) not specified.
  Using default value basis_acc =  0.1000000E-03.
  Species H                   : Using default innermost maximum threshold i_radial=  2 for radial functions.
  Species H                   : Basic radial grid will be enhanced according to radial_multiplier =   2, to contain    49 grid points.
 
  Reading configuration options for species O                   .
  | Found nuclear charge :   8.0000
  | Found atomic mass :    15.9994000000000      amu
  | Found l_max for Hartree potential  :   4
  | Found cutoff potl. onset [A], width [A], scale factor :    4.00000    2.00000    1.00000
  | Found cutoff specification for free atom: Cutoff potential begins at    8.00000 A.
  | Threshold for basis-dependent cutoff potential is   0.100000E-03
  | Found logarithmic grid data [bohr] : 0.1000E-03 0.1000E+03 0.1012E+01
  | Found data for basic radial integration grid :    36 points, outermost radius =    7.000 A
  | Found multiplier for basic radial grid :   2
  | Found angular grid specification: user-specified.
  | Specified grid contains     4 separate shells.
  | Check grid settings after all constraints further below.
  | Found free-atom valence shell :  2 s   2.000
  | Found free-atom valence shell :  2 p   4.000
  | No ionic wave fns used. Skipping ion_occ.
  | No ionic wave fns used. Skipping ion_occ.
  | Found hydrogenic basis function :  2 p   1.800
  | Found hydrogenic basis function :  3 d   7.600
  | Found hydrogenic basis function :  3 s   6.400
  | Found hydrogenic basis function :  4 f  11.600
  | Found hydrogenic basis function :  3 p   6.200
  | Found hydrogenic basis function :  3 d   5.600
  | Found hydrogenic basis function :  5 g  17.600
  | Found hydrogenic basis function :  1 s   0.750
  Species O                   : Missing cutoff potential type.
  Defaulting to exp(1/x)/(1-x)^2 type cutoff potential.
  Species O : On-site basis accuracy parameter (for Gram-Schmidt orthonormalisation) not specified.
  Using default value basis_acc =  0.1000000E-03.
  Species O                   : Using default innermost maximum threshold i_radial=  2 for radial functions.
  Species O                   : Basic radial grid will be enhanced according to radial_multiplier =   2, to contain    73 grid points.
 
  Finished reading input file 'control.in'. Consistency checks are next.
 
  Target number of points in a grid batch is not set. Defaulting to  100
  Method for grid partitioning is not set. Defaulting to parallel hash+maxmin partitioning.
  Batch size limit is not set. Defaulting to    200
  By default, will store active basis functions for each batch.
  If in need of memory, prune_basis_once .false. can be used to disable this option.
  communication_type for Hartree potential was not specified.
  Defaulting to calc_hartree .
  Pulay mixer: Number of initial linear mixing iterations not set.
  Defaulting to    0 iterations.
  Work space size for distributed Hartree potential not set.
  Defaulting to   0.200000E+03 MB.
  Algorithm-dependent basis array size parameters:
  | n_max_pulay                         :       10
  Geometry relaxation not requested: no relaxation will be performed.
  Handling of forces: Unphysical translation and rotation will be removed from forces.
  No accuracy limit for integral partition fn. given. Defaulting to 0.1000E-14.
  No threshold value for u(r) in integrations given. Defaulting to 0.1000E-05.
  No accuracy for occupation numbers given. Defaulting to 0.1000E-07.
  No threshold value for occupation numbers given. Defaulting to 0.0000E+00.
  No accuracy for fermi level given. Defaulting to 0.1000E-19.
  Maximum # of iterations to find E_F not set. Defaulting to  200.
  Will not use alltoall communication since running on < 1024 CPUs.
  Partitioning for Hartree potential was not defined. Using partition_type for integrals.
  | Reporting present value of keyword multip_moments_threshold  :       0.10000000E-09
  | This value may affect high angular momentum components of the Hartree potential in periodic systems.
  No q(lm)/r^(l+1) cutoff set for long-range Hartree potential.
  | Using default value of  0.100000E-09 .
  | Verify using the multipole_threshold keyword.
  Defaulting to new monopole extrapolation.
  Density update method: Loop over occupied states selected for charge density update.
------------------------------------------------------------


------------------------------------------------------------
          Reading geometry description geometry.in.
------------------------------------------------------------
  Input structure read successfully.
  The structure contains       16 atoms,  and a total of         51.000 electrons.

  Input geometry:
  | No unit cell requested.
  | Atomic structure:
  |       Atom                x [A]            y [A]            z [A]
  |    1: Species O             -4.053030         0.065001        -1.525160
  |    2: Species H             -4.566710         0.974813        -1.912820
  |    3: Species H             -3.067820         0.330172        -1.477310
  |    4: Species H             -4.370360        -0.049164        -0.572274
  |    5: Species O             -4.581760        -0.256435         0.939478
  |    6: Species H             -4.349860         0.471090         1.504340
  |    7: Species H             -5.393870        -0.726611         1.228070
  |    8: Species O             -5.293160         2.192130        -2.328800
  |    9: Species H             -4.829300         2.988660        -1.973850
  |   10: Species H             -5.428570         2.328640        -3.235170
  |   11: Species O             -1.645860         0.870179        -1.502250
  |   12: Species H             -1.568890         1.501730        -0.721051
  |   13: Species H             -0.824432         0.282220        -1.377720
  |   14: Species O             -1.975360         2.858040         0.453140
  |   15: Species H             -1.223550         3.375850         0.786238
  |   16: Species H             -2.537520         2.567960         1.156120
  |

  | The smallest distance between any two atoms is         0.92654057 AA.
  |
  | The first atom of this pair is atom number                      8 .
  | The second atom of this pair is atom number                    10 .

  Structure-dependent array size parameters: 
  | Maximum number of distinct radial functions  :       18
  | Maximum number of basis functions            :      360
  | Number of Kohn-Sham states (occupied + empty):       90
------------------------------------------------------------

------------------------------------------------------------
          Preparing all fixed parts of the calculation.
------------------------------------------------------------
  Determining machine precision:
    2.225073858507201E-308
  Setting up grids for atomic and cluster calculations.

  Creating wave function, potential, and density for free atoms.

  Species: H

  List of occupied orbitals and eigenvalues:
    n    l              occ      energy [Ha]    energy [eV]
    1    0           1.0000        -0.241408        -6.5691


  Species: O

  List of occupied orbitals and eigenvalues:
    n    l              occ      energy [Ha]    energy [eV]
    1    0           2.0000       -18.944147      -515.4965
    2    0           2.0000        -0.883529       -24.0421
    2    1           4.0000        -0.330176        -8.9845

  Creating fixed part of basis set: Ionic, confined, hydrogenic.
 
  H                    hydrogenic:
 
  List of hydrogenic basis orbitals: 
    n    l      effective z      eigenvalue [eV]  inner max. [A]     outer max. [A]     outer radius [A]   
    2    0         2.100000       -14.9965           0.193241           1.317192           5.372934
    2    1         3.500000       -41.6672           0.602363           0.602363           4.056010
    1    0         0.850000        -9.8292           0.624864           0.624864           5.372934
    2    1         3.700000       -46.5653           0.573616           0.573616           3.909951
    2    0         1.200000        -4.5995           0.334977           2.228160           5.505921
    3    2         7.000000       -74.0753           0.680692           0.680692           3.769152
 
 
  O                    hydrogenic:
 
  List of hydrogenic basis orbitals: 
    n    l      effective z      eigenvalue [eV]  inner max. [A]     outer max. [A]     outer radius [A]   
    2    1         1.800000       -11.0118           1.178546           1.178546           5.432516
    3    2         7.600000       -87.3182           0.624117           0.624117           3.541422
    3    0         6.400000       -61.9209           0.061166           1.081887           4.306510
    4    3        11.600000      -114.4238           0.731621           0.731621           3.584982
    3    1         6.200000       -58.1113           0.255677           1.030255           4.306510
    3    2         5.600000       -47.4081           0.847222           0.847222           4.413102
    5    4        17.600000      -168.5799           0.749730           0.749730           3.372413
    1    0         0.750000        -7.6499           0.705275           0.705275           5.366508
 

  Adding cutoff potential to free-atom effective potential.
  Creating atomic-like basis functions for current effective potential.

  Species H                   :

  List of atomic basis orbitals and eigenvalues:
    n    l      energy [Ha]    energy [eV]    outer radius [A]
    1    0        -0.241374        -6.5681       5.372934


  Species O                   :

  List of atomic basis orbitals and eigenvalues:
    n    l      energy [Ha]    energy [eV]    outer radius [A]
    1    0       -18.944147      -515.4965       1.415745
    2    0        -0.883529       -24.0421       5.048305
    2    1        -0.330173        -8.9845       5.301302

  Assembling full basis from fixed parts.
  | Species H :   atomic orbital   1 s accepted.
  | Species H :    hydro orbital   2 s accepted.
  | Species H :    hydro orbital   1 s accepted.
  | Species H :    hydro orbital   2 s accepted.
  | Species H :    hydro orbital   2 p accepted.
  | Species H :    hydro orbital   2 p accepted.
  | Species H :    hydro orbital   3 d accepted.
  | Species O :   atomic orbital   1 s accepted.
  | Species O :    hydro orbital   3 s accepted.
  | Species O :   atomic orbital   2 s accepted.
  | Species O :    hydro orbital   1 s accepted.
  | Species O :    hydro orbital   3 p accepted.
  | Species O :   atomic orbital   2 p accepted.
  | Species O :    hydro orbital   2 p accepted.
  | Species O :    hydro orbital   3 d accepted.
  | Species O :    hydro orbital   3 d accepted.
  | Species O :    hydro orbital   4 f accepted.
  | Species O :    hydro orbital   5 g accepted.
 
  Basis size parameters after reduction:
  | Total number of radial functions:       18
  | Total number of basis functions :      360
 
  Testing on-site integration grid accuracy.
  |  Species  Function  <phi|h_atom|phi> (log., in eV)  <phi|h_atom|phi> (rad., in eV)
           1        1                 -6.5683835025                 -6.5684759159
           1        2                 13.3711789951                 13.3708738703
           1        3                 23.6590910787                 23.6532055418
           1        4                 16.2963827186                 16.1870710655 ***
           1        5                 28.7627214838                 28.7627215090
           1        6                 59.5965249172                 59.5965950857
           1        7                 60.2220506392                 60.2220503827
           2        8               -515.4964576505               -515.4964530710
           2        9                 15.3030791347                 15.3030722972
           2       10                -21.7296094581                -21.7296135470
           2       11                 14.2969371730                 14.2969701621
           2       12                 21.0679693190                 21.0679697493
           2       13                 -2.3833606469                 -2.3833613176
           2       14                 13.7067136422                 13.7066766629
           2       15                 45.8013116808                 45.8013116965
           2       16                 52.2309815402                 52.2309831494
           2       17                 85.4120732416                 85.4120732763
           2       18                142.1019167745                142.1019167817
 * Note: Onsite integrals marked "***" above are less accurate than
 * onsite_accuracy_threshold =    0.03000 eV. Usually, this is harmless.
 * When in doubt, tighten the "radial" and/or "radial_multiplier" flags to check.

  Preparing densities etc. for the partition functions (integrals / Hartree potential).

  Preparations completed.
  max(cpu_time)          :      0.170 s.
  Wall clock time (cpu1) :      0.462 s.
------------------------------------------------------------

------------------------------------------------------------
          Begin self-consistency loop: Initialization.

          Date     :  20150727, Time     :  115449.738
------------------------------------------------------------

  Initializing index lists of integration centers etc. from given atomic structure:
  | Number of centers in hartree potential         :        16
  | Number of centers in hartree multipole         :        16
  | Number of centers in electron density summation:        16
  | Number of centers in basis integrals           :        16
  | Number of centers in integrals                 :        16
  Partitioning the integration grid into batches with parallel hashing+maxmin method.
  | Number of batches:     2248
  | Maximal batch size:     181
  | Minimal batch size:      49
  | Average batch size:      92.662
  | Standard deviation of batch sizes:      31.359

  Integration load balanced across     8 MPI tasks.
  Work distribution over tasks is as follows:
  Task     0 has      26088 integration points.
  Task     1 has      26087 integration points.
  Task     2 has      25963 integration points.
  Task     3 has      26043 integration points.
  Task     4 has      25996 integration points.
  Task     5 has      25990 integration points.
  Task     6 has      26109 integration points.
  Task     7 has      26028 integration points.
  Initializing partition tables, free-atom densities, potentials, etc. across the integration grid (initialize_grid_storage).
  | Net number of integration points:   208304
  | of which are non-zero points    :   207737
  Obtaining max. number of non-zero basis functions in each batch (get_n_compute_maxes).
  | Maximal number of non-zero basis functions:      357 in task     0
  | Maximal number of non-zero basis functions:      357 in task     1
  | Maximal number of non-zero basis functions:      357 in task     2
  | Maximal number of non-zero basis functions:      357 in task     3
  | Maximal number of non-zero basis functions:      357 in task     4
  | Maximal number of non-zero basis functions:      357 in task     5
  | Maximal number of non-zero basis functions:      357 in task     6
  | Maximal number of non-zero basis functions:      357 in task     7
  Integrating Hamiltonian matrix: batch-based integration.
  Time summed over all CPUs for integration: real work        8.706 s, elapsed        8.903 s
  Integrating overlap matrix.
  Time summed over all CPUs for integration: real work        4.683 s, elapsed        4.785 s

  Updating Kohn-Sham eigenvalues, eigenvectors, occupation numbers, and Fermi level.
  Solving generalized eigenproblem
  Updating Kohn-Sham eigenvalues and eigenfunctions.
  Transforming overlap matrix and checking for singularities.
  Overlap matrix is nonsingular:
  | Lowest eigenvalue:  0.191743E-03
  Solving real generalised eigenvalue problem by standard LAPACK (fast)
  Determining occupation numbers for Kohn-Sham eigenstates.
  | Chemical potential (Fermi level) in eV                 : -.26855219E+01
  | Error in electron count due to remaining E_F inaccuracy: 0.00000000E+00
  | Maximum occupation number of highest empty state:  0.00E+00

  Writing Kohn-Sham eigenvalues.

  State    Occupation    Eigenvalue [Ha]    Eigenvalue [eV]
      1       2.00000         -19.065400         -518.79594
      2       2.00000         -19.064853         -518.78104
      3       2.00000         -19.059148         -518.62580
      4       2.00000         -19.057209         -518.57305
      5       2.00000         -19.042583         -518.17506
      6       2.00000          -1.131931          -30.80141
      7       2.00000          -1.117119          -30.39834
      8       2.00000          -1.107844          -30.14597
      9       2.00000          -1.103999          -30.04134
     10       2.00000          -1.081502          -29.42917
     11       2.00000          -0.652401          -17.75273
     12       2.00000          -0.650884          -17.71146
     13       2.00000          -0.648964          -17.65920
     14       2.00000          -0.647721          -17.62539
     15       2.00000          -0.626639          -17.05172
     16       2.00000          -0.607743          -16.53753
     17       2.00000          -0.543304          -14.78405
     18       2.00000          -0.514967          -14.01297
     19       2.00000          -0.506799          -13.79069
     20       2.00000          -0.499383          -13.58891
     21       2.00000          -0.483110          -13.14609
     22       2.00000          -0.452721          -12.31917
     23       2.00000          -0.446122          -12.13959
     24       2.00000          -0.443413          -12.06588
     25       2.00000          -0.435735          -11.85695
     26       1.00000          -0.098691           -2.68552
     27       0.00000          -0.067108           -1.82610
     28       0.00000          -0.062822           -1.70948
     29       0.00000          -0.051245           -1.39445
     30       0.00000          -0.014549           -0.39590
     31       0.00000          -0.004340           -0.11809
     32       0.00000           0.008488            0.23096
     33       0.00000           0.036280            0.98724
     34       0.00000           0.043444            1.18217
     35       0.00000           0.050710            1.37988
     36       0.00000           0.057446            1.56317
     37       0.00000           0.067877            1.84702
     38       0.00000           0.083523            2.27278
     39       0.00000           0.087400            2.37829
     40       0.00000           0.092138            2.50721
     41       0.00000           0.101277            2.75588
     42       0.00000           0.111374            3.03063
     43       0.00000           0.117131            3.18731
     44       0.00000           0.118498            3.22449
     45       0.00000           0.131284            3.57242
     46       0.00000           0.138936            3.78064
     47       0.00000           0.143759            3.91189
     48       0.00000           0.149403            4.06547
     49       0.00000           0.154908            4.21525
     50       0.00000           0.170750            4.64633
     51       0.00000           0.178206            4.84924
     52       0.00000           0.190422            5.18166
     53       0.00000           0.224791            6.11686
     54       0.00000           0.232572            6.32860
     55       0.00000           0.241863            6.58143
     56       0.00000           0.255392            6.94956
     57       0.00000           0.258383            7.03095
     58       0.00000           0.274856            7.47922
     59       0.00000           0.288891            7.86112
     60       0.00000           0.298718            8.12854
     61       0.00000           0.304938            8.29777
     62       0.00000           0.340349            9.26138
     63       0.00000           0.355138            9.66380
     64       0.00000           0.356271            9.69462
     65       0.00000           0.377205           10.26427
     66       0.00000           0.386150           10.50767
     67       0.00000           0.393354           10.70371
     68       0.00000           0.399861           10.88077
     69       0.00000           0.406448           11.06002
     70       0.00000           0.423918           11.53539
     71       0.00000           0.437827           11.91387
     72       0.00000           0.440774           11.99408
     73       0.00000           0.449973           12.24438
     74       0.00000           0.467751           12.72815
     75       0.00000           0.488958           13.30521
     76       0.00000           0.499759           13.59914
     77       0.00000           0.529237           14.40126
     78       0.00000           0.535986           14.58493
     79       0.00000           0.553831           15.07051
     80       0.00000           0.578439           15.74011
     81       0.00000           0.605195           16.46820
     82       0.00000           0.616735           16.78220
     83       0.00000           0.636894           17.33077
     84       0.00000           0.678224           18.45542
     85       0.00000           0.697067           18.96815
     86       0.00000           0.710677           19.33851
     87       0.00000           0.749286           20.38912
     88       0.00000           0.774365           21.07154
     89       0.00000           0.783990           21.33345
     90       0.00000           0.806313           21.94088

  Highest occupied state (VBM) at     -2.68552188 eV
  | Occupation number:      1.00000000

  Lowest unoccupied state (CBM) at    -2.68552188 eV
  | Occupation number:      1.00000000

  Overall HOMO-LUMO gap:      0.00000000 eV.
  Calculating total energy contributions from superposition of free atom densities.

  Total energy components:
  | Sum of eigenvalues            :        -218.08167921 Ha       -5934.30442549 eV
  | XC energy correction          :         -45.99915637 Ha       -1251.70073066 eV
  | XC potential correction       :          58.79779079 Ha        1599.96929298 eV
  | Free-atom electrostatic energy:        -178.26200083 Ha       -4850.75584627 eV
  | Hartree energy correction     :           0.00000000 Ha           0.00000000 eV
  | van der Waals energy corr.    :           0.00000000 Ha           0.00000000 eV
  | Entropy correction            :          -0.00010367 Ha          -0.00282095 eV
  | ---------------------------
  | Total energy                  :        -383.54504562 Ha      -10436.79170944 eV
  | Total energy, T -> 0          :        -383.54514929 Ha      -10436.79453039 eV  <-- do not rely on this value for anything but (periodic) metals
  | Electronic free energy        :        -383.54525296 Ha      -10436.79735134 eV

  Derived energy quantities:
  | Kinetic energy                :         379.97144754 Ha       10339.54915803 eV
  | Electrostatic energy          :        -717.51733679 Ha      -19524.64013681 eV
  | Energy correction for multipole
  | error in Hartree potential    :           0.00000000 Ha           0.00000000 eV
  | Sum of eigenvalues per atom                           :        -370.89402659 eV
  | Total energy (T->0) per atom                          :        -652.29965815 eV  <-- do not rely on this value for anything but (periodic) metals
  | Electronic free energy per atom                       :        -652.29983446 eV
  Initialize hartree_potential_storage
  Max. number of atoms included in rho_multipole:           16

  End scf initialization - timings             :  max(cpu_time)    wall_clock(cpu1)
  | Time for scf. initialization               :        2.323 s           2.323 s
  | Boundary condition initialization          :        0.000 s           0.000 s
  | Integration                                :        1.714 s           1.714 s
  | Solution of K.-S. eqns.                    :        0.212 s           0.211 s
  | Grid partitioning                          :        0.160 s           0.159 s
  | Preloading free-atom quantities on grid    :        0.014 s           0.013 s
  | Free-atom superposition energy             :        0.072 s           0.072 s
  | Total energy evaluation                    :        0.000 s           0.000 s
------------------------------------------------------------

------------------------------------------------------------
          Begin self-consistency iteration #    1

  Date     :  20150727, Time     :  115452.061
------------------------------------------------------------
  Evaluating new KS density.
  Integration grid: deviation in total charge (<rho> - N_e) =   4.263256E-14
  Pulay mixing of updated and previous charge densities.

  Evaluating partitioned Hartree potential by multipole expansion.
  | Analytical far-field extrapolation by fixed multipoles:
  | Hartree multipole sum: apparent total charge =  -0.132816E-05
  Summing up the Hartree potential.
  Time summed over all CPUs for potential: real work        2.897 s, elapsed        2.916 s
  | RMS charge density error from multipole expansion :   0.171578E-02

  Integrating Hamiltonian matrix: batch-based integration.
  Time summed over all CPUs for integration: real work        8.700 s, elapsed        8.915 s

  Updating Kohn-Sham eigenvalues, eigenvectors, occupation numbers, and Fermi level.
  Solving generalized eigenproblem
  Updating Kohn-Sham eigenvalues and eigenfunctions.
  Solving real generalised eigenvalue problem by standard LAPACK (fast)
  Determining occupation numbers for Kohn-Sham eigenstates.
  | Chemical potential (Fermi level) in eV                 : -.24512698E+01
  | Error in electron count due to remaining E_F inaccuracy: -.24409914E-08
  | Maximum occupation number of highest empty state:  0.00E+00

  Writing Kohn-Sham eigenvalues.

  State    Occupation    Eigenvalue [Ha]    Eigenvalue [eV]
      1       2.00000         -19.003666         -517.11606
      2       2.00000         -18.997941         -516.96027
      3       2.00000         -18.985890         -516.63235
      4       2.00000         -18.977220         -516.39644
      5       2.00000         -18.970762         -516.22070
      6       2.00000          -1.100709          -29.95183
      7       2.00000          -1.085278          -29.53190
      8       2.00000          -1.069256          -29.09592
      9       2.00000          -1.067535          -29.04910
     10       2.00000          -1.044768          -28.42957
     11       2.00000          -0.624298          -16.98802
     12       2.00000          -0.622324          -16.93430
     13       2.00000          -0.618788          -16.83808
     14       2.00000          -0.614321          -16.71651
     15       2.00000          -0.599999          -16.32679
     16       2.00000          -0.575934          -15.67196
     17       2.00000          -0.511447          -13.91719
     18       2.00000          -0.479523          -13.04848
     19       2.00000          -0.472123          -12.84711
     20       2.00000          -0.460768          -12.53814
     21       2.00000          -0.449670          -12.23614
     22       2.00000          -0.419787          -11.42298
     23       2.00000          -0.409246          -11.13616
     24       2.00000          -0.402434          -10.95080
     25       2.00000          -0.397533          -10.81742
     26       1.00000          -0.090083           -2.45127
     27       0.00000          -0.060557           -1.64784
     28       0.00000          -0.054769           -1.49034
     29       0.00000          -0.043016           -1.17053
     30       0.00000          -0.007623           -0.20745
     31       0.00000           0.001406            0.03826
     32       0.00000           0.018086            0.49213
     33       0.00000           0.046577            1.26742
     34       0.00000           0.051308            1.39615
     35       0.00000           0.056556            1.53897
     36       0.00000           0.064080            1.74371
     37       0.00000           0.076913            2.09290
     38       0.00000           0.091873            2.50000
     39       0.00000           0.096200            2.61773
     40       0.00000           0.102759            2.79620
     41       0.00000           0.108366            2.94878
     42       0.00000           0.118850            3.23406
     43       0.00000           0.125918            3.42641
     44       0.00000           0.129956            3.53628
     45       0.00000           0.142406            3.87506
     46       0.00000           0.151929            4.13419
     47       0.00000           0.153158            4.16765
     48       0.00000           0.160821            4.37615
     49       0.00000           0.168583            4.58738
     50       0.00000           0.177639            4.83379
     51       0.00000           0.185570            5.04961
     52       0.00000           0.199153            5.41923
     53       0.00000           0.232986            6.33986
     54       0.00000           0.240355            6.54039
     55       0.00000           0.249952            6.80154
     56       0.00000           0.263311            7.16506
     57       0.00000           0.266094            7.24079
     58       0.00000           0.282834            7.69630
     59       0.00000           0.297417            8.09314
     60       0.00000           0.304471            8.28509
     61       0.00000           0.311322            8.47149
     62       0.00000           0.347065            9.44413
     63       0.00000           0.363108            9.88067
     64       0.00000           0.365191            9.93736
     65       0.00000           0.386107           10.50650
     66       0.00000           0.394848           10.74435
     67       0.00000           0.402218           10.94490
     68       0.00000           0.409533           11.14396
     69       0.00000           0.414851           11.28868
     70       0.00000           0.433758           11.80317
     71       0.00000           0.447164           12.16796
     72       0.00000           0.448296           12.19875
     73       0.00000           0.458460           12.47532
     74       0.00000           0.477790           13.00132
     75       0.00000           0.497964           13.55028
     76       0.00000           0.508396           13.83415
     77       0.00000           0.539024           14.66760
     78       0.00000           0.546323           14.86621
     79       0.00000           0.564496           15.36073
     80       0.00000           0.588751           16.02074
     81       0.00000           0.615854           16.75825
     82       0.00000           0.629240           17.12248
     83       0.00000           0.648457           17.64542
     84       0.00000           0.688795           18.74308
     85       0.00000           0.709098           19.29553
     86       0.00000           0.721256           19.62637
     87       0.00000           0.759348           20.66291
     88       0.00000           0.785543           21.37571
     89       0.00000           0.793251           21.58545
     90       0.00000           0.816125           22.20788

  Highest occupied state (VBM) at    -10.81742040 eV
  | Occupation number:      2.00000000

  Lowest unoccupied state (CBM) at    -2.45126980 eV
  | Occupation number:      1.00000000

  Overall HOMO-LUMO gap:      8.36615060 eV.

  Total energy components:
  | Sum of eigenvalues            :        -216.01252094 Ha       -5877.99976420 eV
  | XC energy correction          :         -46.22046350 Ha       -1257.72280397 eV
  | XC potential correction       :          59.08659324 Ha        1607.82800748 eV
  | Free-atom electrostatic energy:        -178.26200083 Ha       -4850.75584627 eV
  | Hartree energy correction     :          -2.01905740 Ha         -54.94134727 eV
  | van der Waals energy corr.    :           0.00000000 Ha           0.00000000 eV
  | Entropy correction            :          -0.00010367 Ha          -0.00282095 eV
  | ---------------------------
  | Total energy                  :        -383.42744943 Ha      -10433.59175423 eV
  | Total energy, T -> 0          :        -383.42755310 Ha      -10433.59457518 eV  <-- do not rely on this value for anything but (periodic) metals
  | Electronic free energy        :        -383.42765676 Ha      -10433.59739613 eV

  Derived energy quantities:
  | Kinetic energy                :         381.32793678 Ha       10376.46110834 eV
  | Electrostatic energy          :        -718.53492271 Ha      -19552.33005860 eV
  | Energy correction for multipole
  | error in Hartree potential    :           0.00027585 Ha           0.00750631 eV
  | Sum of eigenvalues per atom                           :        -367.37498526 eV
  | Total energy (T->0) per atom                          :        -652.09966095 eV  <-- do not rely on this value for anything but (periodic) metals
  | Electronic free energy per atom                       :        -652.09983726 eV

  Self-consistency convergence accuracy:
  | Change of charge density      : 0.6383E+00
  | Change of sum of eigenvalues  : 0.5630E+02 eV
  | Change of total energy        : 0.3200E+01 eV

  End self-consistency iteration #     1       :  max(cpu_time)    wall_clock(cpu1)
  | Time for this iteration                    :        2.250 s           2.249 s
  | Charge density update                      :        0.700 s           0.700 s
  | Density mixing                             :        0.004 s           0.004 s
  | Hartree multipole update                   :        0.005 s           0.005 s
  | Hartree multipole summation                :        0.365 s           0.365 s
  | Integration                                :        1.116 s           1.116 s
  | Solution of K.-S. eqns.                    :        0.058 s           0.057 s
  | Total energy evaluation                    :        0.001 s           0.001 s
------------------------------------------------------------

------------------------------------------------------------
          Begin self-consistency iteration #    2

  Date     :  20150727, Time     :  115454.310
------------------------------------------------------------
  Evaluating new KS density.
  Integration grid: deviation in total charge (<rho> - N_e) =  -2.440984E-09
  Pulay mixing of updated and previous charge densities.

  Evaluating partitioned Hartree potential by multipole expansion.
  | Analytical far-field extrapolation by fixed multipoles:
  | Hartree multipole sum: apparent total charge =  -0.490696E-05
  Summing up the Hartree potential.
  Time summed over all CPUs for potential: real work        2.897 s, elapsed        2.916 s
  | RMS charge density error from multipole expansion :   0.708682E-02

  Integrating Hamiltonian matrix: batch-based integration.
  Time summed over all CPUs for integration: real work        8.679 s, elapsed        8.861 s

  Updating Kohn-Sham eigenvalues, eigenvectors, occupation numbers, and Fermi level.
  Solving generalized eigenproblem
  Updating Kohn-Sham eigenvalues and eigenfunctions.
  Solving real generalised eigenvalue problem by standard LAPACK (fast)
  Determining occupation numbers for Kohn-Sham eigenstates.
  | Chemical potential (Fermi level) in eV                 : -.19009730E+01
  | Error in electron count due to remaining E_F inaccuracy: -.24612490E-09
  | Maximum occupation number of highest empty state:  0.00E+00

  Highest occupied state (VBM) at     -8.13833454 eV
  | Occupation number:      2.00000000

  Lowest unoccupied state (CBM) at    -1.90097304 eV
  | Occupation number:      1.00000000

  Overall HOMO-LUMO gap:      6.23736150 eV.

  Total energy components:
  | Sum of eigenvalues            :        -210.91196343 Ha       -5739.20653259 eV
  | XC energy correction          :         -46.79514247 Ha       -1273.36061447 eV
  | XC potential correction       :          59.83484284 Ha        1628.18891489 eV
  | Free-atom electrostatic energy:        -178.26200083 Ha       -4850.75584627 eV
  | Hartree energy correction     :          -7.15805126 Ha        -194.78048507 eV
  | van der Waals energy corr.    :           0.00000000 Ha           0.00000000 eV
  | Entropy correction            :          -0.00010367 Ha          -0.00282095 eV
  | ---------------------------
  | Total energy                  :        -383.29231515 Ha      -10429.91456351 eV
  | Total energy, T -> 0          :        -383.29241882 Ha      -10429.91738446 eV  <-- do not rely on this value for anything but (periodic) metals
  | Electronic free energy        :        -383.29252249 Ha      -10429.92020541 eV

  Derived energy quantities:
  | Kinetic energy                :         384.25030519 Ha       10455.98279864 eV
  | Electrostatic energy          :        -720.74747787 Ha      -19612.53674767 eV
  | Energy correction for multipole
  | error in Hartree potential    :           0.00013170 Ha           0.00358386 eV
  | Sum of eigenvalues per atom                           :        -358.70040829 eV
  | Total energy (T->0) per atom                          :        -651.86983653 eV  <-- do not rely on this value for anything but (periodic) metals
  | Electronic free energy per atom                       :        -651.87001284 eV

  Self-consistency convergence accuracy:
  | Change of charge density      : 0.4867E+00
  | Change of sum of eigenvalues  : 0.1388E+03 eV
  | Change of total energy        : 0.3677E+01 eV

  End self-consistency iteration #     2       :  max(cpu_time)    wall_clock(cpu1)
  | Time for this iteration                    :        2.236 s           2.236 s
  | Charge density update                      :        0.694 s           0.693 s
  | Density mixing                             :        0.005 s           0.006 s
  | Hartree multipole update                   :        0.005 s           0.005 s
  | Hartree multipole summation                :        0.366 s           0.365 s
  | Integration                                :        1.109 s           1.109 s
  | Solution of K.-S. eqns.                    :        0.057 s           0.057 s
  | Total energy evaluation                    :        0.000 s           0.000 s
------------------------------------------------------------

------------------------------------------------------------
          Begin self-consistency iteration #    3

  Date     :  20150727, Time     :  115456.546
------------------------------------------------------------
  Evaluating new KS density.
  Integration grid: deviation in total charge (<rho> - N_e) =  -2.461036E-10
  Pulay mixing of updated and previous charge densities.

  Evaluating partitioned Hartree potential by multipole expansion.
  | Analytical far-field extrapolation by fixed multipoles:
  | Hartree multipole sum: apparent total charge =  -0.558549E-05
  Summing up the Hartree potential.
  Time summed over all CPUs for potential: real work        2.896 s, elapsed        2.914 s
  | RMS charge density error from multipole expansion :   0.144935E-01

  Integrating Hamiltonian matrix: batch-based integration.
  Time summed over all CPUs for integration: real work        8.685 s, elapsed        8.856 s

  Updating Kohn-Sham eigenvalues, eigenvectors, occupation numbers, and Fermi level.
  Solving generalized eigenproblem
  Updating Kohn-Sham eigenvalues and eigenfunctions.
  Solving real generalised eigenvalue problem by standard LAPACK (fast)
  Determining occupation numbers for Kohn-Sham eigenstates.
  | Chemical potential (Fermi level) in eV                 : -.18502812E+01
  | Error in electron count due to remaining E_F inaccuracy: 0.00000000E+00
  | Maximum occupation number of highest empty state:  0.00E+00

  Highest occupied state (VBM) at     -1.85028116 eV
  | Occupation number:      1.00000000

  Lowest unoccupied state (CBM) at    -1.85028116 eV
  | Occupation number:      1.00000000

  Overall HOMO-LUMO gap:      0.00000000 eV.

  Total energy components:
  | Sum of eigenvalues            :        -211.22179219 Ha       -5747.63740212 eV
  | XC energy correction          :         -46.79554516 Ha       -1273.37157216 eV
  | XC potential correction       :          59.82608261 Ha        1627.95053715 eV
  | Free-atom electrostatic energy:        -178.26200083 Ha       -4850.75584627 eV
  | Hartree energy correction     :          -6.83857057 Ha        -186.08697315 eV
  | van der Waals energy corr.    :           0.00000000 Ha           0.00000000 eV
  | Entropy correction            :          -0.00010367 Ha          -0.00282095 eV
  | ---------------------------
  | Total energy                  :        -383.29182613 Ha      -10429.90125653 eV
  | Total energy, T -> 0          :        -383.29192980 Ha      -10429.90407748 eV  <-- do not rely on this value for anything but (periodic) metals
  | Electronic free energy        :        -383.29203347 Ha      -10429.90689843 eV

  Derived energy quantities:
  | Kinetic energy                :         382.44955043 Ha       10406.98176851 eV
  | Electrostatic energy          :        -718.94583140 Ha      -19563.51145289 eV
  | Energy correction for multipole
  | error in Hartree potential    :          -0.00494399 Ha          -0.13453289 eV
  | Sum of eigenvalues per atom                           :        -359.22733763 eV
  | Total energy (T->0) per atom                          :        -651.86900484 eV  <-- do not rely on this value for anything but (periodic) metals
  | Electronic free energy per atom                       :        -651.86918115 eV

  Self-consistency convergence accuracy:
  | Change of charge density      : 0.2308E+00
  | Change of sum of eigenvalues  : -.8431E+01 eV
  | Change of total energy        : 0.1331E-01 eV

  End self-consistency iteration #     3       :  max(cpu_time)    wall_clock(cpu1)
  | Time for this iteration                    :        2.233 s           2.233 s
  | Charge density update                      :        0.689 s           0.690 s
  | Density mixing                             :        0.008 s           0.007 s
  | Hartree multipole update                   :        0.004 s           0.005 s
  | Hartree multipole summation                :        0.366 s           0.365 s
  | Integration                                :        1.108 s           1.108 s
  | Solution of K.-S. eqns.                    :        0.057 s           0.058 s
  | Total energy evaluation                    :        0.000 s           0.000 s
------------------------------------------------------------

------------------------------------------------------------
          Begin self-consistency iteration #    4

  Date     :  20150727, Time     :  115458.779
------------------------------------------------------------
  Evaluating new KS density.
  Integration grid: deviation in total charge (<rho> - N_e) =  -7.105427E-15
  Pulay mixing of updated and previous charge densities.

  Evaluating partitioned Hartree potential by multipole expansion.
  | Analytical far-field extrapolation by fixed multipoles:
  | Hartree multipole sum: apparent total charge =  -0.646994E-05
  Summing up the Hartree potential.
  Time summed over all CPUs for potential: real work        2.895 s, elapsed        2.915 s
  | RMS charge density error from multipole expansion :   0.176255E-01

  Integrating Hamiltonian matrix: batch-based integration.
  Time summed over all CPUs for integration: real work        8.669 s, elapsed        8.891 s

  Updating Kohn-Sham eigenvalues, eigenvectors, occupation numbers, and Fermi level.
  Solving generalized eigenproblem
  Updating Kohn-Sham eigenvalues and eigenfunctions.
  Solving real generalised eigenvalue problem by standard LAPACK (fast)
  Determining occupation numbers for Kohn-Sham eigenstates.
  | Chemical potential (Fermi level) in eV                 : -.17469395E+01
  | Error in electron count due to remaining E_F inaccuracy: 0.35498715E-10
  | Maximum occupation number of highest empty state:  0.00E+00

  Highest occupied state (VBM) at     -1.74693946 eV
  | Occupation number:      1.00000000

  Lowest unoccupied state (CBM) at    -1.08050140 eV
  | Occupation number:      0.00000000

  Overall HOMO-LUMO gap:      0.66643807 eV.

  Total energy components:
  | Sum of eigenvalues            :        -210.28756099 Ha       -5722.21567761 eV
  | XC energy correction          :         -46.92372672 Ha       -1276.85956989 eV
  | XC potential correction       :          59.99063474 Ha        1632.42822831 eV
  | Free-atom electrostatic energy:        -178.26200083 Ha       -4850.75584627 eV
  | Hartree energy correction     :          -7.80488458 Ha        -212.38171536 eV
  | van der Waals energy corr.    :           0.00000000 Ha           0.00000000 eV
  | Entropy correction            :          -0.00010367 Ha          -0.00282095 eV
  | ---------------------------
  | Total energy                  :        -383.28753838 Ha      -10429.78458080 eV
  | Total energy, T -> 0          :        -383.28764204 Ha      -10429.78740175 eV  <-- do not rely on this value for anything but (periodic) metals
  | Electronic free energy        :        -383.28774571 Ha      -10429.79022270 eV

  Derived energy quantities:
  | Kinetic energy                :         382.52686891 Ha       10409.08571155 eV
  | Electrostatic energy          :        -718.89068057 Ha      -19562.01072247 eV
  | Energy correction for multipole
  | error in Hartree potential    :          -0.00646937 Ha          -0.17604055 eV
  | Sum of eigenvalues per atom                           :        -357.63847985 eV
  | Total energy (T->0) per atom                          :        -651.86171261 eV  <-- do not rely on this value for anything but (periodic) metals
  | Electronic free energy per atom                       :        -651.86188892 eV

  Self-consistency convergence accuracy:
  | Change of charge density      : 0.1007E+00
  | Change of sum of eigenvalues  : 0.2542E+02 eV
  | Change of total energy        : 0.1167E+00 eV

  End self-consistency iteration #     4       :  max(cpu_time)    wall_clock(cpu1)
  | Time for this iteration                    :        2.239 s           2.239 s
  | Charge density update                      :        0.689 s           0.689 s
  | Density mixing                             :        0.009 s           0.009 s
  | Hartree multipole update                   :        0.005 s           0.005 s
  | Hartree multipole summation                :        0.365 s           0.365 s
  | Integration                                :        1.113 s           1.113 s
  | Solution of K.-S. eqns.                    :        0.057 s           0.057 s
  | Total energy evaluation                    :        0.000 s           0.000 s
------------------------------------------------------------

------------------------------------------------------------
          Begin self-consistency iteration #    5

  Date     :  20150727, Time     :  115501.018
------------------------------------------------------------
  Evaluating new KS density.
  Integration grid: deviation in total charge (<rho> - N_e) =   3.549872E-11
  Pulay mixing of updated and previous charge densities.

  Evaluating partitioned Hartree potential by multipole expansion.
  | Analytical far-field extrapolation by fixed multipoles:
  | Hartree multipole sum: apparent total charge =  -0.657041E-05
  Summing up the Hartree potential.
  Time summed over all CPUs for potential: real work        2.923 s, elapsed        3.020 s
  | RMS charge density error from multipole expansion :   0.182845E-01

  Integrating Hamiltonian matrix: batch-based integration.
  Time summed over all CPUs for integration: real work        8.688 s, elapsed        8.865 s

  Updating Kohn-Sham eigenvalues, eigenvectors, occupation numbers, and Fermi level.
  Solving generalized eigenproblem
  Updating Kohn-Sham eigenvalues and eigenfunctions.
  Solving real generalised eigenvalue problem by standard LAPACK (fast)
  Determining occupation numbers for Kohn-Sham eigenstates.
  | Chemical potential (Fermi level) in eV                 : -.17467656E+01
  | Error in electron count due to remaining E_F inaccuracy: 0.00000000E+00
  | Maximum occupation number of highest empty state:  0.00E+00

  Highest occupied state (VBM) at     -1.74676563 eV
  | Occupation number:      1.00000000

  Lowest unoccupied state (CBM) at    -1.74676563 eV
  | Occupation number:      1.00000000

  Overall HOMO-LUMO gap:      0.00000000 eV.

  Total energy components:
  | Sum of eigenvalues            :        -210.18464289 Ha       -5719.41513376 eV
  | XC energy correction          :         -46.94053676 Ha       -1277.31699443 eV
  | XC potential correction       :          60.01181689 Ha        1633.00462402 eV
  | Free-atom electrostatic energy:        -178.26200083 Ha       -4850.75584627 eV
  | Hartree energy correction     :          -7.91196255 Ha        -215.29545505 eV
  | van der Waals energy corr.    :           0.00000000 Ha           0.00000000 eV
  | Entropy correction            :          -0.00010367 Ha          -0.00282095 eV
  | ---------------------------
  | Total energy                  :        -383.28732614 Ha      -10429.77880549 eV
  | Total energy, T -> 0          :        -383.28742980 Ha      -10429.78162644 eV  <-- do not rely on this value for anything but (periodic) metals
  | Electronic free energy        :        -383.28753347 Ha      -10429.78444739 eV

  Derived energy quantities:
  | Kinetic energy                :         382.54449567 Ha       10409.56536000 eV
  | Electrostatic energy          :        -718.89128504 Ha      -19562.02717106 eV
  | Energy correction for multipole
  | error in Hartree potential    :          -0.00703360 Ha          -0.19139394 eV
  | Sum of eigenvalues per atom                           :        -357.46344586 eV
  | Total energy (T->0) per atom                          :        -651.86135165 eV  <-- do not rely on this value for anything but (periodic) metals
  | Electronic free energy per atom                       :        -651.86152796 eV

  Self-consistency convergence accuracy:
  | Change of charge density      : 0.2931E-01
  | Change of sum of eigenvalues  : 0.2801E+01 eV
  | Change of total energy        : 0.5775E-02 eV

  End self-consistency iteration #     5       :  max(cpu_time)    wall_clock(cpu1)
  | Time for this iteration                    :        2.251 s           2.251 s
  | Charge density update                      :        0.689 s           0.689 s
  | Density mixing                             :        0.010 s           0.010 s
  | Hartree multipole update                   :        0.005 s           0.005 s
  | Hartree multipole summation                :        0.378 s           0.379 s
  | Integration                                :        1.110 s           1.109 s
  | Solution of K.-S. eqns.                    :        0.057 s           0.058 s
  | Total energy evaluation                    :        0.000 s           0.001 s
------------------------------------------------------------

------------------------------------------------------------
          Begin self-consistency iteration #    6

  Date     :  20150727, Time     :  115503.270
------------------------------------------------------------
  Evaluating new KS density.
  Integration grid: deviation in total charge (<rho> - N_e) =   7.105427E-15
  Pulay mixing of updated and previous charge densities.

  Evaluating partitioned Hartree potential by multipole expansion.
  | Analytical far-field extrapolation by fixed multipoles:
  | Hartree multipole sum: apparent total charge =  -0.654251E-05
  Summing up the Hartree potential.
  Time summed over all CPUs for potential: real work        2.896 s, elapsed        2.914 s
  | RMS charge density error from multipole expansion :   0.185797E-01

  Integrating Hamiltonian matrix: batch-based integration.
  Time summed over all CPUs for integration: real work        8.668 s, elapsed        8.876 s

  Updating Kohn-Sham eigenvalues, eigenvectors, occupation numbers, and Fermi level.
  Solving generalized eigenproblem
  Updating Kohn-Sham eigenvalues and eigenfunctions.
  Solving real generalised eigenvalue problem by standard LAPACK (fast)
  Determining occupation numbers for Kohn-Sham eigenstates.
  | Chemical potential (Fermi level) in eV                 : -.17510010E+01
  | Error in electron count due to remaining E_F inaccuracy: 0.47322146E-11
  | Maximum occupation number of highest empty state:  0.00E+00

  Highest occupied state (VBM) at     -1.75100096 eV
  | Occupation number:      1.00000000

  Lowest unoccupied state (CBM) at    -1.08705905 eV
  | Occupation number:      0.00000000

  Overall HOMO-LUMO gap:      0.66394191 eV.

  Total energy components:
  | Sum of eigenvalues            :        -210.18706044 Ha       -5719.48091861 eV
  | XC energy correction          :         -46.94284481 Ha       -1277.37979955 eV
  | XC potential correction       :          60.01445943 Ha        1633.07653117 eV
  | Free-atom electrostatic energy:        -178.26200083 Ha       -4850.75584627 eV
  | Hartree energy correction     :          -7.90991294 Ha        -215.23968249 eV
  | van der Waals energy corr.    :           0.00000000 Ha           0.00000000 eV
  | Entropy correction            :          -0.00010367 Ha          -0.00282095 eV
  | ---------------------------
  | Total energy                  :        -383.28735959 Ha      -10429.77971573 eV
  | Total energy, T -> 0          :        -383.28746326 Ha      -10429.78253668 eV  <-- do not rely on this value for anything but (periodic) metals
  | Electronic free energy        :        -383.28756692 Ha      -10429.78535763 eV

  Derived energy quantities:
  | Kinetic energy                :         382.51699332 Ha       10408.81698313 eV
  | Electrostatic energy          :        -718.86150811 Ha      -19561.21689932 eV
  | Energy correction for multipole
  | error in Hartree potential    :          -0.00731351 Ha          -0.19901067 eV
  | Sum of eigenvalues per atom                           :        -357.46755741 eV
  | Total energy (T->0) per atom                          :        -651.86140854 eV  <-- do not rely on this value for anything but (periodic) metals
  | Electronic free energy per atom                       :        -651.86158485 eV

  Self-consistency convergence accuracy:
  | Change of charge density      : 0.7094E-02
  | Change of sum of eigenvalues  : -.6578E-01 eV
  | Change of total energy        : -.9102E-03 eV

  End self-consistency iteration #     6       :  max(cpu_time)    wall_clock(cpu1)
  | Time for this iteration                    :        2.244 s           2.243 s
  | Charge density update                      :        0.692 s           0.692 s
  | Density mixing                             :        0.012 s           0.011 s
  | Hartree multipole update                   :        0.005 s           0.005 s
  | Hartree multipole summation                :        0.365 s           0.365 s
  | Integration                                :        1.111 s           1.111 s
  | Solution of K.-S. eqns.                    :        0.057 s           0.057 s
  | Total energy evaluation                    :        0.000 s           0.001 s
------------------------------------------------------------

------------------------------------------------------------
          Begin self-consistency iteration #    7

  Date     :  20150727, Time     :  115505.513
------------------------------------------------------------
  Evaluating new KS density.
  Integration grid: deviation in total charge (<rho> - N_e) =   4.732215E-12
  Pulay mixing of updated and previous charge densities.

  Evaluating partitioned Hartree potential by multipole expansion.
  | Analytical far-field extrapolation by fixed multipoles:
  | Hartree multipole sum: apparent total charge =  -0.655727E-05
  Summing up the Hartree potential.
  Time summed over all CPUs for potential: real work        2.896 s, elapsed        2.914 s
  | RMS charge density error from multipole expansion :   0.185912E-01

  Integrating Hamiltonian matrix: batch-based integration.
  Time summed over all CPUs for integration: real work        8.670 s, elapsed        8.866 s

  Updating Kohn-Sham eigenvalues, eigenvectors, occupation numbers, and Fermi level.
  Solving generalized eigenproblem
  Updating Kohn-Sham eigenvalues and eigenfunctions.
  Solving real generalised eigenvalue problem by standard LAPACK (fast)
  Determining occupation numbers for Kohn-Sham eigenstates.
  | Chemical potential (Fermi level) in eV                 : -.17696868E+01
  | Error in electron count due to remaining E_F inaccuracy: 0.00000000E+00
  | Maximum occupation number of highest empty state:  0.00E+00

  Highest occupied state (VBM) at     -1.76968683 eV
  | Occupation number:      1.00000000

  Lowest unoccupied state (CBM) at    -1.76968683 eV
  | Occupation number:      1.00000000

  Overall HOMO-LUMO gap:      0.00000000 eV.

  Total energy components:
  | Sum of eigenvalues            :        -210.24917872 Ha       -5721.17124288 eV
  | XC energy correction          :         -46.93658327 Ha       -1277.20941449 eV
  | XC potential correction       :          60.00607701 Ha        1632.84843389 eV
  | Free-atom electrostatic energy:        -178.26200083 Ha       -4850.75584627 eV
  | Hartree energy correction     :          -7.84565465 Ha        -213.49112528 eV
  | van der Waals energy corr.    :           0.00000000 Ha           0.00000000 eV
  | Entropy correction            :          -0.00010367 Ha          -0.00282095 eV
  | ---------------------------
  | Total energy                  :        -383.28734045 Ha      -10429.77919502 eV
  | Total energy, T -> 0          :        -383.28744412 Ha      -10429.78201597 eV  <-- do not rely on this value for anything but (periodic) metals
  | Electronic free energy        :        -383.28754779 Ha      -10429.78483692 eV

  Derived energy quantities:
  | Kinetic energy                :         382.55447572 Ha       10409.83693092 eV
  | Electrostatic energy          :        -718.90523290 Ha      -19562.40671146 eV
  | Energy correction for multipole
  | error in Hartree potential    :          -0.00755357 Ha          -0.20554319 eV
  | Sum of eigenvalues per atom                           :        -357.57320268 eV
  | Total energy (T->0) per atom                          :        -651.86137600 eV  <-- do not rely on this value for anything but (periodic) metals
  | Electronic free energy per atom                       :        -651.86155231 eV

  Self-consistency convergence accuracy:
  | Change of charge density      : 0.5910E-02
  | Change of sum of eigenvalues  : -.1690E+01 eV
  | Change of total energy        : 0.5207E-03 eV

  End self-consistency iteration #     7       :  max(cpu_time)    wall_clock(cpu1)
  | Time for this iteration                    :        2.246 s           2.246 s
  | Charge density update                      :        0.694 s           0.694 s
  | Density mixing                             :        0.012 s           0.013 s
  | Hartree multipole update                   :        0.004 s           0.005 s
  | Hartree multipole summation                :        0.365 s           0.366 s
  | Integration                                :        1.110 s           1.109 s
  | Solution of K.-S. eqns.                    :        0.057 s           0.058 s
  | Total energy evaluation                    :        0.000 s           0.001 s
------------------------------------------------------------

------------------------------------------------------------
          Begin self-consistency iteration #    8

  Date     :  20150727, Time     :  115507.760
------------------------------------------------------------
  Evaluating new KS density.
  Integration grid: deviation in total charge (<rho> - N_e) =   1.421085E-14
  Pulay mixing of updated and previous charge densities.

  Evaluating partitioned Hartree potential by multipole expansion.
  | Analytical far-field extrapolation by fixed multipoles:
  | Hartree multipole sum: apparent total charge =  -0.655767E-05
  Summing up the Hartree potential.
  Time summed over all CPUs for potential: real work        2.896 s, elapsed        2.914 s
  | RMS charge density error from multipole expansion :   0.186051E-01

  Integrating Hamiltonian matrix: batch-based integration.
  Time summed over all CPUs for integration: real work        8.667 s, elapsed        8.866 s

  Updating Kohn-Sham eigenvalues, eigenvectors, occupation numbers, and Fermi level.
  Solving generalized eigenproblem
  Updating Kohn-Sham eigenvalues and eigenfunctions.
  Solving real generalised eigenvalue problem by standard LAPACK (fast)
  Determining occupation numbers for Kohn-Sham eigenstates.
  | Chemical potential (Fermi level) in eV                 : -.17725052E+01
  | Error in electron count due to remaining E_F inaccuracy: 0.00000000E+00
  | Maximum occupation number of highest empty state:  0.00E+00

  Highest occupied state (VBM) at     -1.77250522 eV
  | Occupation number:      1.00000000

  Lowest unoccupied state (CBM) at    -1.77250522 eV
  | Occupation number:      1.00000000

  Overall HOMO-LUMO gap:      0.00000000 eV.

  Total energy components:
  | Sum of eigenvalues            :        -210.26563454 Ha       -5721.61902853 eV
  | XC energy correction          :         -46.93534776 Ha       -1277.17579442 eV
  | XC potential correction       :          60.00441477 Ha        1632.80320208 eV
  | Free-atom electrostatic energy:        -178.26200083 Ha       -4850.75584627 eV
  | Hartree energy correction     :          -7.82877037 Ha        -213.03168065 eV
  | van der Waals energy corr.    :           0.00000000 Ha           0.00000000 eV
  | Entropy correction            :          -0.00010367 Ha          -0.00282095 eV
  | ---------------------------
  | Total energy                  :        -383.28733872 Ha      -10429.77914779 eV
  | Total energy, T -> 0          :        -383.28744238 Ha      -10429.78196874 eV  <-- do not rely on this value for anything but (periodic) metals
  | Electronic free energy        :        -383.28754605 Ha      -10429.78478969 eV

  Derived energy quantities:
  | Kinetic energy                :         382.56370977 Ha       10410.08820222 eV
  | Electrostatic energy          :        -718.91570073 Ha      -19562.69155558 eV
  | Energy correction for multipole
  | error in Hartree potential    :          -0.00762453 Ha          -0.20747393 eV
  | Sum of eigenvalues per atom                           :        -357.60118928 eV
  | Total energy (T->0) per atom                          :        -651.86137305 eV  <-- do not rely on this value for anything but (periodic) metals
  | Electronic free energy per atom                       :        -651.86154936 eV

  Self-consistency convergence accuracy:
  | Change of charge density      : 0.1809E-02
  | Change of sum of eigenvalues  : -.4478E+00 eV
  | Change of total energy        : 0.4723E-04 eV

  End self-consistency iteration #     8       :  max(cpu_time)    wall_clock(cpu1)
  | Time for this iteration                    :        2.246 s           2.244 s
  | Charge density update                      :        0.693 s           0.691 s
  | Density mixing                             :        0.014 s           0.015 s
  | Hartree multipole update                   :        0.005 s           0.005 s
  | Hartree multipole summation                :        0.365 s           0.365 s
  | Integration                                :        1.110 s           1.110 s
  | Solution of K.-S. eqns.                    :        0.058 s           0.057 s
  | Total energy evaluation                    :        0.000 s           0.001 s
------------------------------------------------------------

------------------------------------------------------------
          Begin self-consistency iteration #    9

  Date     :  20150727, Time     :  115510.005
------------------------------------------------------------
  Evaluating new KS density.
  Integration grid: deviation in total charge (<rho> - N_e) =   0.000000E+00
  Pulay mixing of updated and previous charge densities.

  Evaluating partitioned Hartree potential by multipole expansion.
  | Analytical far-field extrapolation by fixed multipoles:
  | Hartree multipole sum: apparent total charge =  -0.654865E-05
  Summing up the Hartree potential.
  Time summed over all CPUs for potential: real work        2.896 s, elapsed        2.914 s
  | RMS charge density error from multipole expansion :   0.185941E-01

  Integrating Hamiltonian matrix: batch-based integration.
  Time summed over all CPUs for integration: real work        8.681 s, elapsed        8.865 s

  Updating Kohn-Sham eigenvalues, eigenvectors, occupation numbers, and Fermi level.
  Solving generalized eigenproblem
  Updating Kohn-Sham eigenvalues and eigenfunctions.
  Solving real generalised eigenvalue problem by standard LAPACK (fast)
  Determining occupation numbers for Kohn-Sham eigenstates.
  | Chemical potential (Fermi level) in eV                 : -.17731149E+01
  | Error in electron count due to remaining E_F inaccuracy: 0.00000000E+00
  | Maximum occupation number of highest empty state:  0.00E+00

  Highest occupied state (VBM) at     -1.77311487 eV
  | Occupation number:      1.00000000

  Lowest unoccupied state (CBM) at    -1.77311487 eV
  | Occupation number:      1.00000000

  Overall HOMO-LUMO gap:      0.00000000 eV.

  Total energy components:
  | Sum of eigenvalues            :        -210.26880199 Ha       -5721.70521938 eV
  | XC energy correction          :         -46.93504707 Ha       -1277.16761239 eV
  | XC potential correction       :          60.00402595 Ha        1632.79262169 eV
  | Free-atom electrostatic energy:        -178.26200083 Ha       -4850.75584627 eV
  | Hartree energy correction     :          -7.82551389 Ha        -212.94306745 eV
[...]
   Van der Waals               : 0.170561E-02 0.272327E-02 -.797936E-03
   ----------------------------------------------------------------
   Total forces(   7)            : 0.128784E+00 0.420559E+00 0.321546E+00
  atom #    8
   Hellmann-Feynman + Multipole  : -.647139E+01 -.730315E+01 0.891986E+01
   Pulay + GGA                   : 0.693863E+01 0.693263E+01 -.593343E+01
   Van der Waals               : 0.236117E-02 0.319314E-02 0.322887E-02
   ----------------------------------------------------------------
   Total forces(   8)            : 0.469603E+00 -.367325E+00 0.298966E+01
  atom #    9
   Hellmann-Feynman + Multipole  : -.126845E+00 -.210613E+00 -.137138E+00
   Pulay + GGA                   : 0.497387E-01 0.122393E+00 0.431200E-01
   Van der Waals               : 0.456328E-02 0.183478E-02 0.472231E-02
   ----------------------------------------------------------------
   Total forces(   9)            : -.725428E-01 -.863854E-01 -.892955E-01
  atom #   10
   Hellmann-Feynman + Multipole  : -.308058E+00 0.432632E+00 -.269219E+01
   Pulay + GGA                   : -.382894E-01 0.249328E-01 -.137538E+00
   Van der Waals               : 0.180200E-02 0.263042E-04 0.187783E-02
   ----------------------------------------------------------------
   Total forces(  10)            : -.344546E+00 0.457591E+00 -.282785E+01
  atom #   11
   Hellmann-Feynman + Multipole  : -.467653E+01 0.204612E+01 -.935144E+01
   Pulay + GGA                   : 0.652090E+01 -.253850E+01 0.101478E+02
   Van der Waals               : 0.357800E-03 -.186523E-02 -.411916E-02
   ----------------------------------------------------------------
   Total forces(  11)            : 0.184472E+01 -.494249E+00 0.792272E+00
  atom #   12
   Hellmann-Feynman + Multipole  : -.297430E+00 -.906096E-01 -.531006E+00
   Pulay + GGA                   : 0.268750E-01 0.405013E-01 0.770237E-01
   Van der Waals               : -.786207E-03 0.183849E-02 0.135502E-02
   ----------------------------------------------------------------
   Total forces(  12)            : -.271341E+00 -.482698E-01 -.452627E+00
  atom #   13
   Hellmann-Feynman + Multipole  : -.152850E+01 0.805670E+00 -.355194E+00
   Pulay + GGA                   : 0.111640E+00 -.621891E-01 0.207448E-01
   Van der Waals               : -.305053E-02 0.190377E-02 0.242369E-02
   ----------------------------------------------------------------
   Total forces(  13)            : -.141991E+01 0.745385E+00 -.332025E+00
  atom #   14
   Hellmann-Feynman + Multipole  : -.307149E+01 -.692678E+00 -.143071E+02
   Pulay + GGA                   : 0.393709E+01 0.948219E+00 0.122473E+02
   Van der Waals               : -.875374E-02 -.281557E-02 -.280289E-02
   ----------------------------------------------------------------
   Total forces(  14)            : 0.856850E+00 0.252725E+00 -.206265E+01
  atom #   15
   Hellmann-Feynman + Multipole  : -.167294E+00 -.461582E-01 0.423852E+00
   Pulay + GGA                   : 0.107354E+00 0.803674E-01 0.550803E-01
   Van der Waals               : -.280758E-02 -.291881E-02 -.140052E-02
   ----------------------------------------------------------------
   Total forces(  15)            : -.627484E-01 0.312904E-01 0.477532E+00
  atom #   16
   Hellmann-Feynman + Multipole  : -.653151E+00 -.254459E+00 0.147064E+01
   Pulay + GGA                   : -.106793E+00 -.438856E-01 0.109482E+00
   Van der Waals               : -.372548E-02 -.926660E-03 -.349368E-02
   ----------------------------------------------------------------
   Total forces(  16)            : -.763670E+00 -.299271E+00 0.157663E+01
  Timings for vdw_correction_hirshfeld (Tkatchenko-Scheffler 2009):
  | CPU time:        5.876 s, Wall clock time:        5.878 s.
  Removing unitary transformations (pure translations, rotations) from forces on atoms.
  Atomic forces before filtering:
  | Net force on center of mass :  0.106546E-02 -.566550E-02 -.842281E-02 eV/A
  | Net torque on center of mass:  0.278341E-01 -.641416E-02 -.265022E-02 eV
  Atomic forces after filtering:
  | Net force on center of mass :  0.267609E-15 0.133805E-15 0.535218E-15 eV/A
  | Net torque on center of mass:  0.151054E-14 0.113290E-14 0.188817E-15 eV
 
  Energy and forces in a compact form:
  | Total energy uncorrected      :         -0.104298780196334E+05 eV
  | Total energy corrected        :         -0.104298808405813E+05 eV  <-- do not rely on this value for anything but (periodic) metals
  | Electronic free energy        :         -0.104298836615292E+05 eV
  Total atomic forces (unitary forces cleaned) [eV/Ang]:
  |   1         -0.112367488216093E+01          0.126472456781636E+01         -0.127818397074029E+01
  |   2          0.517889339982038E+00         -0.116189026641967E+01          0.409324339228105E+00
  |   3          0.525158742447833E+00         -0.972772028870674E-01         -0.446538678861754E-01
  |   4         -0.633258921335374E-02         -0.126282865946667E+00          0.502919781507190E+00
  |   5         -0.277671495538708E+00         -0.165741369385022E+01         -0.121717948907600E+01
  |   6          0.572805575411699E-04          0.116303287727230E+01          0.123225866693737E+01
  |   7          0.128769323467573E+00          0.421827109108077E+00          0.323075709954075E+00
  |   8          0.469479888750118E+00         -0.367733055633842E+00          0.298981230213643E+01
  |   9         -0.726407282014774E-01         -0.866322784323798E-01         -0.895386835891439E-01
  |  10         -0.344704701705823E+00          0.456758408595343E+00         -0.282776086235424E+01
  |  11          0.184461521874507E+01         -0.494315341561261E+00          0.792894561287609E+00
  |  12         -0.271406887257420E+00         -0.479696614062194E-01         -0.452305302528976E+00
  |  13         -0.142001817237991E+01          0.745365880931027E+00         -0.331160062565158E+00
  |  14          0.856850529540912E+00          0.253583749320736E+00         -0.206295157643057E+01
  |  15         -0.627268889357525E-01          0.322957686588225E-01          0.476957247195872E+00
  |  16         -0.763643978097705E+00         -0.298073995565333E+00          0.157649120692391E+01
 
  ------------------------------------ 
  Start decomposition of the XC Energy 
  ------------------------------------ 
  Hartree-Fock part   :          0.000000000 Ha              0.000000000 eV
  ------------------------------------ 
  X Energy            :        -45.269728545 Ha          -1231.851989648 eV
  C Energy GGA        :         -1.665856489 Ha            -45.330261442 eV
  Total XC Energy     :        -46.935585034 Ha          -1277.182251089 eV
  LDA X and C from self-consistent density 
  X Energy LDA        :        -40.823766124 Ha          -1110.871196746 eV
  C Energy LDA        :         -3.342775557 Ha            -90.961550983 eV
  ------------------------------------ 
  End decomposition of the XC Energy 
  ------------------------------------ 
  Performing Hirshfeld analysis of fragment charges and moments.
  ----------------------------------------------------------------------
  | Atom     1: O
  |   Hirshfeld charge        :     -0.15744843
  |   Free atom volume        :     23.95238533
  |   Hirshfeld volume        :     21.24966272
  |   Hirshfeld dipole vector :      0.00881675       0.02735226       0.02158330
  |   Hirshfeld dipole moment :      0.03594050
  |   Hirshfeld second moments:      0.08136661      -0.00719064      -0.00603123
  |                                 -0.00719064       0.04996123      -0.02444147
  |                                 -0.00603123      -0.02444147       0.06376335
  ----------------------------------------------------------------------
  | Atom     2: H
  |   Hirshfeld charge        :      0.11415925
  |   Free atom volume        :     10.44207651
  |   Hirshfeld volume        :      9.16335198
  |   Hirshfeld dipole vector :     -0.00232221       0.01274685      -0.00950280
  |   Hirshfeld dipole moment :      0.01606792
  |   Hirshfeld second moments:      0.05609830       0.02389182      -0.00048091
  |                                  0.02389182       0.03327879       0.00954537
  |                                 -0.00048091       0.00954537       0.06917622
  ----------------------------------------------------------------------
  | Atom     3: H
  |   Hirshfeld charge        :      0.10488168
  |   Free atom volume        :     10.44207651
  |   Hirshfeld volume        :      8.93522000
  |   Hirshfeld dipole vector :      0.01820560       0.00444197       0.00401669
  |   Hirshfeld dipole moment :      0.01916530
  |   Hirshfeld second moments:      0.02519494      -0.01962169      -0.00169186
  |                                 -0.01962169       0.07005961       0.00268336
  |                                 -0.00169186       0.00268336       0.07194251
  ----------------------------------------------------------------------
  | Atom     4: H
  |   Hirshfeld charge        :      0.10221546
  |   Free atom volume        :     10.44207651
  |   Hirshfeld volume        :      9.30809207
  |   Hirshfeld dipole vector :     -0.01129464      -0.00343742       0.01543247
  |   Hirshfeld dipole moment :      0.01943054
  |   Hirshfeld second moments:      0.06742155       0.01075574       0.01103437
  |                                  0.01075574       0.06383487       0.00174769
  |                                  0.01103437       0.00174769       0.01753423
  ----------------------------------------------------------------------
  | Atom     5: O
  |   Hirshfeld charge        :     -0.23670422
  |   Free atom volume        :     23.95238533
  |   Hirshfeld volume        :     22.95411234
  |   Hirshfeld dipole vector :     -0.02487002       0.01428755      -0.01456673
  |   Hirshfeld dipole moment :      0.03216895
  |   Hirshfeld second moments:      0.00848801       0.05575462      -0.01752921
  |                                  0.05575462       0.01272562       0.01552926
  |                                 -0.01752921       0.01552926       0.03828463
  ----------------------------------------------------------------------
  | Atom     6: H
  |   Hirshfeld charge        :      0.06812747
  |   Free atom volume        :     10.44207651
  |   Hirshfeld volume        :     13.04628028
  |   Hirshfeld dipole vector :      0.01903079       0.02513728       0.00226119
  |   Hirshfeld dipole moment :      0.03160960
  |   Hirshfeld second moments:     -0.01077551       0.04372505      -0.02242533
  |                                  0.04372505      -0.02730796      -0.01738903
  |                                 -0.02242533      -0.01738903      -0.01311300
  ----------------------------------------------------------------------
  | Atom     7: H
  |   Hirshfeld charge        :      0.11167844
  |   Free atom volume        :     10.44207651
  |   Hirshfeld volume        :     11.53590697
  |   Hirshfeld dipole vector :     -0.05662835      -0.04584708       0.00251413
  |   Hirshfeld dipole moment :      0.07290436
  |   Hirshfeld second moments:      0.00806706       0.02133025      -0.00058724
  |                                  0.02133025       0.02116551       0.01030524
  |                                 -0.00058724       0.01030524       0.03614685
  ----------------------------------------------------------------------
  | Atom     8: O
  |   Hirshfeld charge        :     -0.20477577
  |   Free atom volume        :     23.95238533
  |   Hirshfeld volume        :     22.27185112
  |   Hirshfeld dipole vector :      0.03833757      -0.00598438      -0.02404131
  |   Hirshfeld dipole moment :      0.04564610
  |   Hirshfeld second moments:      0.00094509       0.00471422       0.03817802
  |                                  0.00471422       0.06194255       0.00635412
  |                                  0.03817802       0.00635412       0.05582785
  ----------------------------------------------------------------------
  | Atom     9: H
  |   Hirshfeld charge        :      0.10997949
  |   Free atom volume        :     10.44207651
  |   Hirshfeld volume        :     11.61092914
  |   Hirshfeld dipole vector :      0.03337833       0.03289495       0.01057936
  |   Hirshfeld dipole moment :      0.04804283
  |   Hirshfeld second moments:      0.01228298      -0.01869306       0.01709758
  |                                 -0.01869306       0.01799855      -0.01142549
  |                                  0.01709758      -0.01142549       0.01826705
  ----------------------------------------------------------------------
  | Atom    10: H
  |   Hirshfeld charge        :      0.12179981
  |   Free atom volume        :     10.44207651
  |   Hirshfeld volume        :     10.59323999
  |   Hirshfeld dipole vector :     -0.00901571      -0.00406484      -0.07332102
  |   Hirshfeld dipole moment :      0.07398498
  |   Hirshfeld second moments:      0.03212733       0.00183288       0.01594946
  |                                  0.00183288       0.05651121       0.01007418
  |                                  0.01594946       0.01007418       0.03439470
  ----------------------------------------------------------------------
  | Atom    11: O
  |   Hirshfeld charge        :     -0.23188802
  |   Free atom volume        :     23.95238533
  |   Hirshfeld volume        :     22.25095981
  |   Hirshfeld dipole vector :     -0.01218816      -0.02096124       0.03546166
  |   Hirshfeld dipole moment :      0.04295875
  |   Hirshfeld second moments:      0.05666447      -0.01650488       0.00765826
  |                                 -0.01650488       0.03319726       0.03626966
  |                                  0.00765826       0.03626966      -0.00574606
  ----------------------------------------------------------------------
  | Atom    12: H
  |   Hirshfeld charge        :      0.08955813
  |   Free atom volume        :     10.44207651
  |   Hirshfeld volume        :      9.74237388
  |   Hirshfeld dipole vector :      0.00749903       0.01971011       0.03153487
  |   Hirshfeld dipole moment :      0.03793642
  |   Hirshfeld second moments:      0.07149011       0.00545850      -0.00002874
  |                                  0.00545850       0.03376620      -0.00459926
  |                                 -0.00002874      -0.00459926       0.01322573
  ----------------------------------------------------------------------
  | Atom    13: H
  |   Hirshfeld charge        :      0.12331472
  |   Free atom volume        :     10.44207651
  |   Hirshfeld volume        :      9.84177367
  |   Hirshfeld dipole vector :      0.06190056      -0.04807403       0.00646646
  |   Hirshfeld dipole moment :      0.07864227
  |   Hirshfeld second moments:      0.05484212       0.00796733       0.00093736
  |                                  0.00796733       0.05551357       0.01784475
  |                                  0.00093736       0.01784475       0.04444860
  ----------------------------------------------------------------------
  | Atom    14: O
  |   Hirshfeld charge        :     -0.27739274
  |   Free atom volume        :     23.95238533
  |   Hirshfeld volume        :     23.51677176
  |   Hirshfeld dipole vector :      0.03030724      -0.02073422       0.02556082
  |   Hirshfeld dipole moment :      0.04474139
  |   Hirshfeld second moments:      0.01212518       0.05330054      -0.02400767
  |                                  0.05330054      -0.01392220       0.02903305
  |                                 -0.02400767       0.02903305      -0.00143615
  ----------------------------------------------------------------------
  | Atom    15: H
  |   Hirshfeld charge        :      0.10440798
  |   Free atom volume        :     10.44207651
  |   Hirshfeld volume        :     11.38556905
  |   Hirshfeld dipole vector :      0.07057859       0.04054095       0.00972077
  |   Hirshfeld dipole moment :      0.08197194
  |   Hirshfeld second moments:      0.02636962       0.02130522      -0.01886491
  |                                  0.02130522       0.01971156       0.00918829
  |                                 -0.01886491       0.00918829       0.02439949
  ----------------------------------------------------------------------
  | Atom    16: H
  |   Hirshfeld charge        :      0.05813361
  |   Free atom volume        :     10.44207651
  |   Hirshfeld volume        :     12.95113207
  |   Hirshfeld dipole vector :     -0.01863081      -0.02858472       0.01448085
  |   Hirshfeld dipole moment :      0.03706600
  |   Hirshfeld second moments:     -0.01676580       0.04212610       0.00803794
  |                                  0.04212610      -0.00490910       0.02404709
  |                                  0.00803794       0.02404709      -0.03028939
  ----------------------------------------------------------------------


------------------------------------------------------------------------------
  Final output of selected total energy values:

  The following output summarizes some interesting total energy values
  at the end of a run (AFTER all relaxation, molecular dynamics, etc.).

  | Total energy of the DFT / Hartree-Fock s.c.f. calculation      :         -10429.878019633 eV
  | Final zero-broadening corrected energy (caution - metals only) :         -10429.880840581 eV
  | For reference only, the value of 1 Hartree used in FHI-aims is :             27.211384500 eV

  Before relying on these values, please be sure to understand exactly which
  total energy value is referred to by a given number. Different objects may
  all carry the same name 'total energy'. Definitions:

  Total energy of the DFT / Hartree-Fock s.c.f. calculation:
  | Note that this energy does not include ANY quantities calculated after the
  | s.c.f. cycle, in particular not ANY RPA, MP2, etc. many-body perturbation terms.

  Final zero-broadening corrected energy:
  | For metallic systems only, a broadening of the occupation numbers at the Fermi
  | level can be extrapolated back to zero broadening by an electron-gas inspired
  | formula. For all systems that are not real metals, this value can be
  | meaningless and should be avoided.

------------------------------------------------------------------------------

------------------------------------------------------------
          Leaving FHI-aims.
          Date     :  20150727, Time     :  115532.422

          Computational steps:
          | Number of self-consistency cycles          :           16

          Detailed time accounting                     :  max(cpu_time)    wall_clock(cpu1)
          | Total time                                 :       43.120 s          43.159 s
          | Preparation time                           :        0.170 s           0.462 s
          | Grid partitioning                          :        0.160 s           0.159 s
          | Preloading free-atom quantities on grid    :        0.014 s           0.013 s
          | Free-atom superposition energy             :        0.072 s           0.072 s
          | Total time for integrations                :       19.493 s          19.493 s
          | Total time for solution of K.-S. equations :        1.126 s           1.127 s
          | Total time for density & force components  :       14.099 s          14.092 s
          | Total time for mixing                      :        0.218 s           0.218 s
          | Total time for Hartree multipole update    :        0.077 s           0.080 s
          | Total time for Hartree multipole sum       :        7.067 s           7.069 s
          | Total time for total energy evaluation     :        0.004 s           0.017 s
          | Total time for scaled ZORA corrections     :        0.000 s           0.000 s
          | Total time for TS (2009) vdW correction    :        0.063 s           0.066 s

          Have a nice day.
------------------------------------------------------------
