  MPI-parallelism will be employed.
------------------------------------------------------------
          Invoking FHI-aims ...
          Version 081213
          Compiled on 2013/08/29 at 17:41:06 on host generoso.

          When using FHI-aims, please cite the following reference:

          Volker Blum, Ralf Gehrke, Felix Hanke, Paula Havu,
          Ville Havu, Xinguo Ren, Karsten Reuter, and Matthias Scheffler,
          'Ab Initio Molecular Simulations with Numeric Atom-Centered Orbitals: FHI-aims',
          Computer Physics Communications 180, 2175-2196 (2009)

          For any questions about FHI-aims, please visit the aimsclub website
          with its forums and wiki. Contributions to both the forums and the
          wiki are warmly encouraged - they are for you, and everyone is welcome there.

------------------------------------------------------------

  Date     :  20150727, Time     :  130501.890
  Time zero on CPU 1             :   0.509910000000000E-01  s.
  Internal wall clock time zero  :           207234301.890  s.

  Using        8 parallel tasks.
  Task        0 on host gen59 reporting.
  Task        1 on host gen59 reporting.
  Task        2 on host gen59 reporting.
  Task        3 on host gen59 reporting.
  Task        4 on host gen59 reporting.
  Task        5 on host gen59 reporting.
  Task        6 on host gen59 reporting.
  Task        7 on host gen59 reporting.

  Performing system and environment tests:
  | Environment variable OMP_NUM_THREADS correctly set to 1.
  | Checking for scalapack...
  | No scalapack compiled in.

  Obtaining array dimensions for all initial allocations:
  
  -----------------------------------------------------------------------
  Parsing control.in (first pass over file, find array dimensions only).
  The contents of control.in will be repeated verbatim below
  unless switched off by setting 'verbatim_writeout .false.' .
  in the first line of control.in .
  -----------------------------------------------------------------------
  
  #########################################################################################
  #
  #  Volker Blum, FHI 2008 : Test run input file control.in
  #
  #########################################################################################
  #
  #  Physical model
  #
    xc                 rpbe
    spin               none
    relativistic       atomic_zora scalar
    charge             0.
   vdw_correction_hirshfeld
  #
  #  SCF convergence
  #
    occupation_type    gaussian 0.01
    mixer              pulay
      n_max_pulay        10
      charge_mix_param   0.1
    sc_accuracy_rho    5E-5
    sc_accuracy_eev    5E-3
    sc_accuracy_etot   5E-6
    sc_iter_limit      3000
  #
  #  Eigenvalue solver
  #
    KS_method          lapack
      empty_states       8
      basis_threshold    0.e-5
  #
  #  Efficiency
  #
  #   all previous settings are now default, except stratmann still
  #   undecided. Continue to handle stratmann with care, if at all.
  #
  #  partition_type stratmann
    partition_type rho_r2
  #  hartree_partition_type stratmann
  #
  #  Oprions for large clusters (100's of atoms: memory saving / better scaling)
  #
  # for periodic systems:
  #
    density_update_method orbital
    packed_matrix_format none
  #  k_grid 6 6 6
  #  output k_eigenvalue 1
  #  distributed_spline_storage .true.
  #
  #  Relaxation
  #
  #  relax_geometry   bfgs 5.e-3
    sc_accuracy_forces 5.E-4
    final_forces_cleaned .true.
  #
  #  Output options
  #
  #  output mulliken
    output Hirshfeld
  #  output dipole
  
  #harmonic_length_scale 0.001
  
  ################################################################################
  #
  #  FHI-aims code project
  #  VB, Fritz-Haber Institut, 2007
  #
  #  Suggested "safe" defaults for H atom (to be pasted into control.in file)
  #  Basis constructed for a non-relativistic H2 molecule using the
  #  PW-LDA functional.
  #
  ################################################################################
    species        H
  #     global species definitions
      nucleus             1
      cut_pot             4.0  2.0  1.0
      cut_free_atom       finite 8.0
      logarithmic         0.00010000 100.00  1.0123
      basis_dep_cutoff    1d-4  # 1d-4 is safe default - please check 5d-4 if you wish!
      radial_base         24 7.0
      radial_multiplier   2
      angular_grids       specified
        division   0.2783  110
        division   0.3822  194
        division   0.5626  302
  #      division   0.5922  434
  #      division   0.6227  590
  #      division   0.7206  770
        outer_grid  302
      l_hartree           4
  ################################################################################
  #
  #  Definition of "minimal" basis
  #
  ################################################################################
  #     valence basis states
      valence      1  s   1.
  #     ion occupancy
      ion_occ      1  s   0.5
  ################################################################################
  #
  #  Suggested additional basis functions. For production calculations,
  #  uncomment them one after another (the most important basis functions are
  #  listed first).
  #
  ################################################################################
  #  "First tier" - improvements: -1014.90 meV to -62.69 meV
       hydro 2 s 2.1
       hydro 2 p 3.5
  #  "Second tier" - improvements: -12.89 meV to -1.83 meV
       hydro 1 s 0.85
       hydro 2 p 3.7
       hydro 2 s 1.2
       hydro 3 d 7
  #  "Third tier" - improvements: -0.25 meV to -0.12 meV
  #     hydro 4 f 11.2
  #     hydro 3 p 4.8
  #     hydro 4 d 9
  #     hydro 3 s 3.2
  
  ################################################################################
  #
  #  FHI-aims code project
  #  VB, Fritz-Haber Institut, 2007
  #
  #  Suggested "safe" defaults for O atom (to be pasted into control.in file)
  #  All values have been tested for a non-relativistic, non-spinpolarized O2
  #  molecule using the PW-LDA functional. Validity for PBE is expected.
  #
  #  Constructed for dimers: 1.0 A, 1.208 A, 1.5 A, 2.0 A, 3.0 A
  #
  ################################################################################
    species        O
  #     global species definitions
      nucleus             8
      mass                15.9994
      l_hartree           4
      cut_pot             4.0  2.0  1.0
      cut_free_atom       finite 8.0
      basis_dep_cutoff    1d-4  # 1d-4 is safe default - please check 5d-4 if you wish!
      logarithmic         0.00010000 100.00  1.0123
      radial_base         36 7.0
      radial_multiplier   2
       angular_grids specified
        division   0.4087  110
        division   0.5181  194
        division   0.6184  302
  #      division   0.7315  434
  #      division   0.7934  590
  #      division   0.9656  770
  #      division   1.4041  974
  #      outer_grid 974
        outer_grid 302
  ################################################################################
  #
  #  Definition of "minimal" basis
  #
  ################################################################################
  #     valence basis states
      valence      2  s   2.
      valence      2  p   4.
  #     ion occupancy
      ion_occ      2  s   1.
      ion_occ      2  p   3.
  ################################################################################
  #
  #  Suggested additional basis functions. For production calculations,
  #  uncomment them one after another (the most important basis functions are
  #  listed first).
  #
  ################################################################################
  #  "First tier" - improvements: -699.05 meV to -159.38 meV
       hydro 2 p 1.8
       hydro 3 d 7.6
       hydro 3 s 6.4
  #  "Second tier" - improvements: -49.91 meV to -5.39 meV
       hydro 4 f 11.6
       hydro 3 p 6.2
       hydro 3 d 5.6
       hydro 5 g 17.6
       hydro 1 s 0.75
  #  "Third tier" - improvements: -2.83 meV to -0.50 meV
  #     ionic 2 p auto
  #     hydro 4 f 10.8
  #     hydro 4 d 4.7
  #     hydro 2 s 6.8
  #  "Fourth tier" - improvements: -0.40 meV to -0.12 meV
  #     hydro 3 p 5
  #     hydro 3 s 3.3
  #     hydro 5 g 15.6
  #     hydro 4 f 17.6
  #     hydro 4 d 14
  # Further basis functions - -0.08 meV and below
  #     hydro 3 s 2.1
  #     hydro 4 d 11.6
  #     hydro 3 p 16
  #     hydro 2 s 17.2
  
  
  -----------------------------------------------------------------------
  Completed first pass over input file control.in .
  -----------------------------------------------------------------------
  
  
  -----------------------------------------------------------------------
  Parsing geometry.in (first pass over file, find array dimensions only).
  The contents of geometry.in will be repeated verbatim below
  unless switched off by setting 'verbatim_writeout .false.' .
  in the first line of geometry.in .
  -----------------------------------------------------------------------
  
  atom      -4.053030000      0.065001000     -1.525160000  O
  atom      -4.566710000      0.974813000     -1.912820000  H
  atom      -3.067820000      0.330172000     -1.477310000  H
  atom      -4.370360000     -0.049164000     -0.572274000  H
  atom      -4.066610000      4.258280000     -0.900064000  O
  atom      -3.224110000      3.876870000     -0.569443000  H
  atom      -3.737450000      5.116530000     -1.322720000  H
  atom      -5.628340000      3.730740000      1.385610000  O
  atom      -6.090650000      4.418470000      1.860350000  H
  atom      -5.158540000      4.200260000      0.615875000  H
  
  -----------------------------------------------------------------------
  Completed first pass over input file geometry.in .
  -----------------------------------------------------------------------
  
 
  Basic array size parameters: 
  | Number of species                 :        2
  | Number of atoms                   :       10
  | Max. basis fn. angular momentum   :        4
  | Max. atomic/ionic basis occupied n:        2
  | Max. number of basis fn. types    :        2
  | Max. radial fns per species/type  :        8
  | Max. logarithmic grid size        :     1301
  | Max. radial integration grid size :       73
  | Max. angular integration grid size:      302
  | Max. angular grid division number :        8
  | Radial grid for Hartree potential :     1301
  | Number of spin channels           :        1

------------------------------------------------------------
          Reading file control.in.
------------------------------------------------------------
  XC: Using RPBE gradient-corrected functionals.
  Spin treatment: No spin polarisation.
  Scalar relativistic treatment of kinetic energy: on-site free-atom approximation to ZORA.
  Charge =   0.000000E+00: Neutral system requested explicitly.
  Using non-empirical van der Waals correction (Hirshfeld partitioning):
  Occupation type: Gaussian broadening, width =   0.100000E-01 eV.
  Using pulay charge density mixing.
  Pulay mixing - number of memorized iterations:   10
  Charge density mixing - mixing parameter:     0.1000
  Convergence accuracy of self-consistent charge density: 0.5000E-04
  Convergence accuracy of sum of eigenvalues: 0.5000E-02
  Convergence accuracy of total energy: 0.5000E-05
  Maximum number of s.-c. iterations  :  3000
  Kohn-Sham eigenvalues and eigenfunctions calculated by lapack diagonalisation (D&C).
  Number of empty states per atom:        8
  Threshold for basis singularities: 0.0000E+00
  Partition function in integrals calculations: rho / r^2
 Using packed matrix format           0
  Convergence accuracy of forces: 0.5000E-03
  Cleaning forces before final output.
  Hirshfeld charge analysis will be performed.
 
  Reading configuration options for species H                   .
  | Found nuclear charge :   1.0000
  | Found cutoff potl. onset [A], width [A], scale factor :    4.00000    2.00000    1.00000
  | Found cutoff specification for free atom: Cutoff potential begins at    8.00000 A.
  | Found logarithmic grid data [bohr] : 0.1000E-03 0.1000E+03 0.1012E+01
  | Threshold for basis-dependent cutoff potential is   0.100000E-03
  | Found data for basic radial integration grid :    24 points, outermost radius =    7.000 A
  | Found multiplier for basic radial grid :   2
  | Found angular grid specification: user-specified.
  | Specified grid contains     4 separate shells.
  | Check grid settings after all constraints further below.
  | Found l_max for Hartree potential  :   4
  | Found free-atom valence shell :  1 s   1.000
  | No ionic wave fns used. Skipping ion_occ.
  | Found hydrogenic basis function :  2 s   2.100
  | Found hydrogenic basis function :  2 p   3.500
  | Found hydrogenic basis function :  1 s   0.850
  | Found hydrogenic basis function :  2 p   3.700
  | Found hydrogenic basis function :  2 s   1.200
  | Found hydrogenic basis function :  3 d   7.000
  Species H                   : Missing cutoff potential type.
  Defaulting to exp(1/x)/(1-x)^2 type cutoff potential.
  Species H : On-site basis accuracy parameter (for Gram-Schmidt orthonormalisation) not specified.
  Using default value basis_acc =  0.1000000E-03.
  Species H                   : Using default innermost maximum threshold i_radial=  2 for radial functions.
  Species H                   : Basic radial grid will be enhanced according to radial_multiplier =   2, to contain    49 grid points.
 
  Reading configuration options for species O                   .
  | Found nuclear charge :   8.0000
  | Found atomic mass :    15.9994000000000      amu
  | Found l_max for Hartree potential  :   4
  | Found cutoff potl. onset [A], width [A], scale factor :    4.00000    2.00000    1.00000
  | Found cutoff specification for free atom: Cutoff potential begins at    8.00000 A.
  | Threshold for basis-dependent cutoff potential is   0.100000E-03
  | Found logarithmic grid data [bohr] : 0.1000E-03 0.1000E+03 0.1012E+01
  | Found data for basic radial integration grid :    36 points, outermost radius =    7.000 A
  | Found multiplier for basic radial grid :   2
  | Found angular grid specification: user-specified.
  | Specified grid contains     4 separate shells.
  | Check grid settings after all constraints further below.
  | Found free-atom valence shell :  2 s   2.000
  | Found free-atom valence shell :  2 p   4.000
  | No ionic wave fns used. Skipping ion_occ.
  | No ionic wave fns used. Skipping ion_occ.
  | Found hydrogenic basis function :  2 p   1.800
  | Found hydrogenic basis function :  3 d   7.600
  | Found hydrogenic basis function :  3 s   6.400
  | Found hydrogenic basis function :  4 f  11.600
  | Found hydrogenic basis function :  3 p   6.200
  | Found hydrogenic basis function :  3 d   5.600
  | Found hydrogenic basis function :  5 g  17.600
  | Found hydrogenic basis function :  1 s   0.750
  Species O                   : Missing cutoff potential type.
  Defaulting to exp(1/x)/(1-x)^2 type cutoff potential.
  Species O : On-site basis accuracy parameter (for Gram-Schmidt orthonormalisation) not specified.
  Using default value basis_acc =  0.1000000E-03.
  Species O                   : Using default innermost maximum threshold i_radial=  2 for radial functions.
  Species O                   : Basic radial grid will be enhanced according to radial_multiplier =   2, to contain    73 grid points.
 
  Finished reading input file 'control.in'. Consistency checks are next.
 
  Target number of points in a grid batch is not set. Defaulting to  100
  Method for grid partitioning is not set. Defaulting to parallel hash+maxmin partitioning.
  Batch size limit is not set. Defaulting to    200
  By default, will store active basis functions for each batch.
  If in need of memory, prune_basis_once .false. can be used to disable this option.
  communication_type for Hartree potential was not specified.
  Defaulting to calc_hartree .
  Pulay mixer: Number of initial linear mixing iterations not set.
  Defaulting to    0 iterations.
  Work space size for distributed Hartree potential not set.
  Defaulting to   0.200000E+03 MB.
  Algorithm-dependent basis array size parameters:
  | n_max_pulay                         :       10
  Geometry relaxation not requested: no relaxation will be performed.
  Handling of forces: Unphysical translation and rotation will be removed from forces.
  No accuracy limit for integral partition fn. given. Defaulting to 0.1000E-14.
  No threshold value for u(r) in integrations given. Defaulting to 0.1000E-05.
  No accuracy for occupation numbers given. Defaulting to 0.1000E-07.
  No threshold value for occupation numbers given. Defaulting to 0.0000E+00.
  No accuracy for fermi level given. Defaulting to 0.1000E-19.
  Maximum # of iterations to find E_F not set. Defaulting to  200.
  Will not use alltoall communication since running on < 1024 CPUs.
  Partitioning for Hartree potential was not defined. Using partition_type for integrals.
  | Reporting present value of keyword multip_moments_threshold  :       0.10000000E-09
  | This value may affect high angular momentum components of the Hartree potential in periodic systems.
  No q(lm)/r^(l+1) cutoff set for long-range Hartree potential.
  | Using default value of  0.100000E-09 .
  | Verify using the multipole_threshold keyword.
  Defaulting to new monopole extrapolation.
  Density update method: Loop over occupied states selected for charge density update.
------------------------------------------------------------


------------------------------------------------------------
          Reading geometry description geometry.in.
------------------------------------------------------------
  Input structure read successfully.
  The structure contains       10 atoms,  and a total of         31.000 electrons.

  Input geometry:
  | No unit cell requested.
  | Atomic structure:
  |       Atom                x [A]            y [A]            z [A]
  |    1: Species O             -4.053030         0.065001        -1.525160
  |    2: Species H             -4.566710         0.974813        -1.912820
  |    3: Species H             -3.067820         0.330172        -1.477310
  |    4: Species H             -4.370360        -0.049164        -0.572274
  |    5: Species O             -4.066610         4.258280        -0.900064
  |    6: Species H             -3.224110         3.876870        -0.569443
  |    7: Species H             -3.737450         5.116530        -1.322720
  |    8: Species O             -5.628340         3.730740         1.385610
  |    9: Species H             -6.090650         4.418470         1.860350
  |   10: Species H             -5.158540         4.200260         0.615875
  |

  | The smallest distance between any two atoms is         0.95502940 AA.
  |
  | The first atom of this pair is atom number                      8 .
  | The second atom of this pair is atom number                     9 .

  Structure-dependent array size parameters: 
  | Maximum number of distinct radial functions  :       18
  | Maximum number of basis functions            :      222
  | Number of Kohn-Sham states (occupied + empty):       56
------------------------------------------------------------

------------------------------------------------------------
          Preparing all fixed parts of the calculation.
------------------------------------------------------------
  Determining machine precision:
    2.225073858507201E-308
  Setting up grids for atomic and cluster calculations.

  Creating wave function, potential, and density for free atoms.

  Species: H

  List of occupied orbitals and eigenvalues:
    n    l              occ      energy [Ha]    energy [eV]
    1    0           1.0000        -0.241408        -6.5691


  Species: O

  List of occupied orbitals and eigenvalues:
    n    l              occ      energy [Ha]    energy [eV]
    1    0           2.0000       -18.944147      -515.4965
    2    0           2.0000        -0.883529       -24.0421
    2    1           4.0000        -0.330176        -8.9845

  Creating fixed part of basis set: Ionic, confined, hydrogenic.
 
  H                    hydrogenic:
 
  List of hydrogenic basis orbitals: 
    n    l      effective z      eigenvalue [eV]  inner max. [A]     outer max. [A]     outer radius [A]   
    2    0         2.100000       -14.9965           0.193241           1.317192           5.372934
    2    1         3.500000       -41.6672           0.602363           0.602363           4.056010
    1    0         0.850000        -9.8292           0.624864           0.624864           5.372934
    2    1         3.700000       -46.5653           0.573616           0.573616           3.909951
    2    0         1.200000        -4.5995           0.334977           2.228160           5.505921
    3    2         7.000000       -74.0753           0.680692           0.680692           3.769152
 
 
  O                    hydrogenic:
 
  List of hydrogenic basis orbitals: 
    n    l      effective z      eigenvalue [eV]  inner max. [A]     outer max. [A]     outer radius [A]   
    2    1         1.800000       -11.0118           1.178546           1.178546           5.432516
    3    2         7.600000       -87.3182           0.624117           0.624117           3.541422
    3    0         6.400000       -61.9209           0.061166           1.081887           4.306510
    4    3        11.600000      -114.4238           0.731621           0.731621           3.584982
    3    1         6.200000       -58.1113           0.255677           1.030255           4.306510
    3    2         5.600000       -47.4081           0.847222           0.847222           4.413102
    5    4        17.600000      -168.5799           0.749730           0.749730           3.372413
    1    0         0.750000        -7.6499           0.705275           0.705275           5.366508
 

  Adding cutoff potential to free-atom effective potential.
  Creating atomic-like basis functions for current effective potential.

  Species H                   :

  List of atomic basis orbitals and eigenvalues:
    n    l      energy [Ha]    energy [eV]    outer radius [A]
    1    0        -0.241374        -6.5681       5.372934


  Species O                   :

  List of atomic basis orbitals and eigenvalues:
    n    l      energy [Ha]    energy [eV]    outer radius [A]
    1    0       -18.944147      -515.4965       1.415745
    2    0        -0.883529       -24.0421       5.048305
    2    1        -0.330173        -8.9845       5.301302

  Assembling full basis from fixed parts.
  | Species H :   atomic orbital   1 s accepted.
  | Species H :    hydro orbital   2 s accepted.
  | Species H :    hydro orbital   1 s accepted.
  | Species H :    hydro orbital   2 s accepted.
  | Species H :    hydro orbital   2 p accepted.
  | Species H :    hydro orbital   2 p accepted.
  | Species H :    hydro orbital   3 d accepted.
  | Species O :   atomic orbital   1 s accepted.
  | Species O :    hydro orbital   3 s accepted.
  | Species O :   atomic orbital   2 s accepted.
  | Species O :    hydro orbital   1 s accepted.
  | Species O :    hydro orbital   3 p accepted.
  | Species O :   atomic orbital   2 p accepted.
  | Species O :    hydro orbital   2 p accepted.
  | Species O :    hydro orbital   3 d accepted.
  | Species O :    hydro orbital   3 d accepted.
  | Species O :    hydro orbital   4 f accepted.
  | Species O :    hydro orbital   5 g accepted.
 
  Basis size parameters after reduction:
  | Total number of radial functions:       18
  | Total number of basis functions :      222
 
  Testing on-site integration grid accuracy.
  |  Species  Function  <phi|h_atom|phi> (log., in eV)  <phi|h_atom|phi> (rad., in eV)
           1        1                 -6.5683835025                 -6.5684759159
           1        2                 13.3711789951                 13.3708738703
           1        3                 23.6590910787                 23.6532055418
           1        4                 16.2963827186                 16.1870710655 ***
           1        5                 28.7627214838                 28.7627215090
           1        6                 59.5965249172                 59.5965950857
           1        7                 60.2220506392                 60.2220503827
           2        8               -515.4964576505               -515.4964530710
           2        9                 15.3030791347                 15.3030722972
           2       10                -21.7296094581                -21.7296135470
           2       11                 14.2969371730                 14.2969701621
           2       12                 21.0679693190                 21.0679697493
           2       13                 -2.3833606469                 -2.3833613176
           2       14                 13.7067136422                 13.7066766629
           2       15                 45.8013116808                 45.8013116965
           2       16                 52.2309815402                 52.2309831494
           2       17                 85.4120732416                 85.4120732763
           2       18                142.1019167745                142.1019167817
 * Note: Onsite integrals marked "***" above are less accurate than
 * onsite_accuracy_threshold =    0.03000 eV. Usually, this is harmless.
 * When in doubt, tighten the "radial" and/or "radial_multiplier" flags to check.

  Preparing densities etc. for the partition functions (integrals / Hartree potential).

  Preparations completed.
  max(cpu_time)          :      0.171 s.
  Wall clock time (cpu1) :      0.499 s.
------------------------------------------------------------

------------------------------------------------------------
          Begin self-consistency loop: Initialization.

          Date     :  20150727, Time     :  130502.425
------------------------------------------------------------

  Initializing index lists of integration centers etc. from given atomic structure:
  | Number of centers in hartree potential         :        10
  | Number of centers in hartree multipole         :        10
  | Number of centers in electron density summation:        10
  | Number of centers in basis integrals           :        10
  | Number of centers in integrals                 :        10
  Partitioning the integration grid into batches with parallel hashing+maxmin method.
  | Number of batches:     1284
  | Maximal batch size:     190
  | Minimal batch size:      53
  | Average batch size:     100.950
  | Standard deviation of batch sizes:      29.713

  Integration load balanced across     8 MPI tasks.
  Work distribution over tasks is as follows:
  Task     0 has      16152 integration points.
  Task     1 has      16284 integration points.
  Task     2 has      16239 integration points.
  Task     3 has      16210 integration points.
  Task     4 has      16198 integration points.
  Task     5 has      16196 integration points.
  Task     6 has      16179 integration points.
  Task     7 has      16162 integration points.
  Initializing partition tables, free-atom densities, potentials, etc. across the integration grid (initialize_grid_storage).
  | Net number of integration points:   129620
  | of which are non-zero points    :   129109
  Obtaining max. number of non-zero basis functions in each batch (get_n_compute_maxes).
  | Maximal number of non-zero basis functions:      220 in task     0
  | Maximal number of non-zero basis functions:      221 in task     1
  | Maximal number of non-zero basis functions:      221 in task     2
  | Maximal number of non-zero basis functions:      220 in task     3
  | Maximal number of non-zero basis functions:      220 in task     4
  | Maximal number of non-zero basis functions:      220 in task     5
  | Maximal number of non-zero basis functions:      220 in task     6
  | Maximal number of non-zero basis functions:      221 in task     7
  Integrating Hamiltonian matrix: batch-based integration.
  Time summed over all CPUs for integration: real work        2.616 s, elapsed        2.685 s
  Integrating overlap matrix.
  Time summed over all CPUs for integration: real work        1.352 s, elapsed        1.380 s

  Updating Kohn-Sham eigenvalues, eigenvectors, occupation numbers, and Fermi level.
  Solving generalized eigenproblem
  Updating Kohn-Sham eigenvalues and eigenfunctions.
  Transforming overlap matrix and checking for singularities.
  Overlap matrix is nonsingular:
  | Lowest eigenvalue:  0.377334E-03
  Solving real generalised eigenvalue problem by standard LAPACK (fast)
  Determining occupation numbers for Kohn-Sham eigenstates.
  | Chemical potential (Fermi level) in eV                 : -.29942182E+01
  | Error in electron count due to remaining E_F inaccuracy: -.10789236E-09
  | Maximum occupation number of highest empty state:  0.00E+00

  Writing Kohn-Sham eigenvalues.

  State    Occupation    Eigenvalue [Ha]    Eigenvalue [eV]
      1       2.00000         -19.064655         -518.77565
      2       2.00000         -19.044595         -518.22981
      3       2.00000         -19.042492         -518.17257
      4       2.00000          -1.118634          -30.43957
      5       2.00000          -1.092148          -29.71885
      6       2.00000          -1.083988          -29.49683
      7       2.00000          -0.626740          -17.05445
      8       2.00000          -0.623188          -16.95781
      9       2.00000          -0.604565          -16.45105
     10       2.00000          -0.598785          -16.29377
     11       2.00000          -0.514976          -14.01320
     12       2.00000          -0.497869          -13.54770
     13       2.00000          -0.489137          -13.31009
     14       2.00000          -0.433385          -11.79300
     15       2.00000          -0.429304          -11.68195
     16       1.00000          -0.110035           -2.99422
     17       0.00000          -0.075458           -2.05331
     18       0.00000          -0.043577           -1.18579
     19       0.00000          -0.037583           -1.02270
     20       0.00000          -0.018982           -0.51652
     21       0.00000          -0.003353           -0.09125
     22       0.00000           0.036179            0.98448
     23       0.00000           0.064840            1.76439
     24       0.00000           0.075201            2.04633
     25       0.00000           0.084177            2.29057
     26       0.00000           0.091363            2.48611
     27       0.00000           0.094893            2.58216
     28       0.00000           0.102429            2.78724
     29       0.00000           0.109679            2.98451
     30       0.00000           0.122674            3.33813
     31       0.00000           0.150060            4.08333
     32       0.00000           0.166739            4.53720
     33       0.00000           0.192203            5.23012
     34       0.00000           0.210562            5.72968
     35       0.00000           0.213371            5.80613
     36       0.00000           0.229308            6.23978
     37       0.00000           0.245658            6.68469
     38       0.00000           0.280279            7.62677
     39       0.00000           0.329841            8.97544
     40       0.00000           0.339828            9.24720
     41       0.00000           0.348164            9.47401
     42       0.00000           0.363379            9.88804
     43       0.00000           0.370840           10.09107
     44       0.00000           0.374629           10.19419
     45       0.00000           0.382176           10.39954
     46       0.00000           0.406660           11.06579
     47       0.00000           0.422777           11.50434
     48       0.00000           0.452228           12.30575
     49       0.00000           0.466373           12.69067
     50       0.00000           0.491872           13.38452
     51       0.00000           0.500739           13.62581
     52       0.00000           0.531783           14.47055
     53       0.00000           0.574604           15.63576
     54       0.00000           0.650617           17.70419
     55       0.00000           0.714495           19.44239
     56       0.00000           0.726937           19.78096

  Highest occupied state (VBM) at    -11.68195248 eV
  | Occupation number:      2.00000000

  Lowest unoccupied state (CBM) at    -2.99421825 eV
  | Occupation number:      1.00000000

  Overall HOMO-LUMO gap:      8.68773424 eV.
  Calculating total energy contributions from superposition of free atom densities.

  Total energy components:
  | Sum of eigenvalues            :        -130.63895496 Ha       -3554.86683421 eV
  | XC energy correction          :         -27.64930189 Ha        -752.37578502 eV
  | XC potential correction       :          35.33010679 Ha         961.38112021 eV
  | Free-atom electrostatic energy:        -107.34021738 Ha       -2920.87592739 eV
  | Hartree energy correction     :           0.00000000 Ha           0.00000000 eV
  | van der Waals energy corr.    :           0.00000000 Ha           0.00000000 eV
  | Entropy correction            :          -0.00010367 Ha          -0.00282095 eV
  | ---------------------------
  | Total energy                  :        -230.29836745 Ha       -6266.73742641 eV
  | Total energy, T -> 0          :        -230.29847112 Ha       -6266.74024735 eV  <-- do not rely on this value for anything but (periodic) metals
  | Electronic free energy        :        -230.29857479 Ha       -6266.74306830 eV

  Derived energy quantities:
  | Kinetic energy                :         228.07562614 Ha        6206.25355795 eV
  | Electrostatic energy          :        -430.72469169 Ha      -11720.61519934 eV
  | Energy correction for multipole
  | error in Hartree potential    :           0.00000000 Ha           0.00000000 eV
  | Sum of eigenvalues per atom                           :        -355.48668342 eV
  | Total energy (T->0) per atom                          :        -626.67402474 eV  <-- do not rely on this value for anything but (periodic) metals
  | Electronic free energy per atom                       :        -626.67430683 eV
  Initialize hartree_potential_storage
  Max. number of atoms included in rho_multipole:           10

  End scf initialization - timings             :  max(cpu_time)    wall_clock(cpu1)
  | Time for scf. initialization               :        0.794 s           0.793 s
  | Boundary condition initialization          :        0.000 s           0.000 s
  | Integration                                :        0.510 s           0.510 s
  | Solution of K.-S. eqns.                    :        0.075 s           0.074 s
  | Grid partitioning                          :        0.101 s           0.100 s
  | Preloading free-atom quantities on grid    :        0.013 s           0.014 s
  | Free-atom superposition energy             :        0.034 s           0.034 s
  | Total energy evaluation                    :        0.000 s           0.000 s
------------------------------------------------------------

------------------------------------------------------------
          Begin self-consistency iteration #    1

  Date     :  20150727, Time     :  130503.219
------------------------------------------------------------
  Evaluating new KS density.
  Integration grid: deviation in total charge (<rho> - N_e) =  -1.078853E-10
  Pulay mixing of updated and previous charge densities.

  Evaluating partitioned Hartree potential by multipole expansion.
  | Analytical far-field extrapolation by fixed multipoles:
  | Hartree multipole sum: apparent total charge =  -0.470741E-06
  Summing up the Hartree potential.
  Time summed over all CPUs for potential: real work        1.145 s, elapsed        1.152 s
  | RMS charge density error from multipole expansion :   0.127512E-02

  Integrating Hamiltonian matrix: batch-based integration.
  Time summed over all CPUs for integration: real work        2.614 s, elapsed        2.683 s

  Updating Kohn-Sham eigenvalues, eigenvectors, occupation numbers, and Fermi level.
  Solving generalized eigenproblem
  Updating Kohn-Sham eigenvalues and eigenfunctions.
  Solving real generalised eigenvalue problem by standard LAPACK (fast)
  Determining occupation numbers for Kohn-Sham eigenstates.
  | Chemical potential (Fermi level) in eV                 : -.28639681E+01
  | Error in electron count due to remaining E_F inaccuracy: 0.85265128E-13
  | Maximum occupation number of highest empty state:  0.00E+00

  Writing Kohn-Sham eigenvalues.

  State    Occupation    Eigenvalue [Ha]    Eigenvalue [eV]
      1       2.00000         -19.016167         -517.45624
      2       2.00000         -18.970432         -516.21171
      3       2.00000         -18.960565         -515.94321
      4       2.00000          -1.097496          -29.86438
      5       2.00000          -1.053516          -28.66764
      6       2.00000          -1.043637          -28.39880
      7       2.00000          -0.609262          -16.57887
      8       2.00000          -0.586305          -15.95418
      9       2.00000          -0.580868          -15.80622
     10       2.00000          -0.573535          -15.60667
     11       2.00000          -0.478157          -13.01130
     12       2.00000          -0.466999          -12.70768
     13       2.00000          -0.455734          -12.40116
     14       2.00000          -0.395325          -10.75734
     15       2.00000          -0.384524          -10.46344
     16       1.00000          -0.105249           -2.86397
     17       0.00000          -0.067877           -1.84703
     18       0.00000          -0.035333           -0.96146
     19       0.00000          -0.032608           -0.88732
     20       0.00000          -0.014699           -0.39997
     21       0.00000           0.002851            0.07759
     22       0.00000           0.047911            1.30372
     23       0.00000           0.067791            1.84468
     24       0.00000           0.079980            2.17637
     25       0.00000           0.087847            2.39044
     26       0.00000           0.099217            2.69984
     27       0.00000           0.100519            2.73527
     28       0.00000           0.110951            3.01912
     29       0.00000           0.119898            3.26259
     30       0.00000           0.130307            3.54583
     31       0.00000           0.158676            4.31780
     32       0.00000           0.175260            4.76907
     33       0.00000           0.197814            5.38278
     34       0.00000           0.215057            5.85200
     35       0.00000           0.219809            5.98131
     36       0.00000           0.233400            6.35114
     37       0.00000           0.252818            6.87952
     38       0.00000           0.286376            7.79269
     39       0.00000           0.335116            9.11898
     40       0.00000           0.343283            9.34121
     41       0.00000           0.355830            9.68264
     42       0.00000           0.372169           10.12722
     43       0.00000           0.377281           10.26633
     44       0.00000           0.378586           10.30185
     45       0.00000           0.386076           10.50566
     46       0.00000           0.416841           11.34281
     47       0.00000           0.428802           11.66831
     48       0.00000           0.460760           12.53793
     49       0.00000           0.475049           12.92675
     50       0.00000           0.504028           13.71529
     51       0.00000           0.507440           13.80815
     52       0.00000           0.542658           14.76648
     53       0.00000           0.587098           15.97574
     54       0.00000           0.661566           18.00212
     55       0.00000           0.717306           19.51890
     56       0.00000           0.736156           20.03182

  Highest occupied state (VBM) at     -2.86396806 eV
  | Occupation number:      1.00000000

  Lowest unoccupied state (CBM) at    -1.84702896 eV
  | Occupation number:      0.00000000

  Overall HOMO-LUMO gap:      1.01693910 eV.

  Total energy components:
  | Sum of eigenvalues            :        -129.45029102 Ha       -3522.52164263 eV
  | XC energy correction          :         -27.77787463 Ha        -755.87442716 eV
  | XC potential correction       :          35.49828953 Ha         965.95760560 eV
  | Free-atom electrostatic energy:        -107.34021738 Ha       -2920.87592739 eV
  | Hartree energy correction     :          -1.15542685 Ha         -31.44076418 eV
  | van der Waals energy corr.    :           0.00000000 Ha           0.00000000 eV
  | Entropy correction            :          -0.00010367 Ha          -0.00282095 eV
  | ---------------------------
  | Total energy                  :        -230.22552034 Ha       -6264.75515576 eV
  | Total energy, T -> 0          :        -230.22562401 Ha       -6264.75797671 eV  <-- do not rely on this value for anything but (periodic) metals
  | Electronic free energy        :        -230.22572768 Ha       -6264.76079766 eV

  Derived energy quantities:
  | Kinetic energy                :         228.86316375 Ha        6227.68354672 eV
  | Electrostatic energy          :        -431.31080946 Ha      -11736.56427532 eV
  | Energy correction for multipole
  | error in Hartree potential    :           0.00038755 Ha           0.01054569 eV
  | Sum of eigenvalues per atom                           :        -352.25216426 eV
  | Total energy (T->0) per atom                          :        -626.47579767 eV  <-- do not rely on this value for anything but (periodic) metals
  | Electronic free energy per atom                       :        -626.47607977 eV

  Self-consistency convergence accuracy:
  | Change of charge density      : 0.4837E+00
  | Change of sum of eigenvalues  : 0.3235E+02 eV
  | Change of total energy        : 0.1982E+01 eV

  End self-consistency iteration #     1       :  max(cpu_time)    wall_clock(cpu1)
  | Time for this iteration                    :        0.743 s           0.742 s
  | Charge density update                      :        0.236 s           0.235 s
  | Density mixing                             :        0.002 s           0.002 s
  | Hartree multipole update                   :        0.004 s           0.005 s
  | Hartree multipole summation                :        0.145 s           0.144 s
  | Integration                                :        0.336 s           0.337 s
  | Solution of K.-S. eqns.                    :        0.019 s           0.018 s
  | Total energy evaluation                    :        0.000 s           0.001 s
------------------------------------------------------------

------------------------------------------------------------
          Begin self-consistency iteration #    2

  Date     :  20150727, Time     :  130503.961
------------------------------------------------------------
  Evaluating new KS density.
  Integration grid: deviation in total charge (<rho> - N_e) =   9.592327E-14
  Pulay mixing of updated and previous charge densities.

  Evaluating partitioned Hartree potential by multipole expansion.
  | Analytical far-field extrapolation by fixed multipoles:
  | Hartree multipole sum: apparent total charge =  -0.196669E-05
  Summing up the Hartree potential.
  Time summed over all CPUs for potential: real work        1.145 s, elapsed        1.153 s
  | RMS charge density error from multipole expansion :   0.508900E-02

  Integrating Hamiltonian matrix: batch-based integration.
  Time summed over all CPUs for integration: real work        2.613 s, elapsed        2.686 s

  Updating Kohn-Sham eigenvalues, eigenvectors, occupation numbers, and Fermi level.
  Solving generalized eigenproblem
  Updating Kohn-Sham eigenvalues and eigenfunctions.
  Solving real generalised eigenvalue problem by standard LAPACK (fast)
  Determining occupation numbers for Kohn-Sham eigenstates.
  | Chemical potential (Fermi level) in eV                 : -.25792987E+01
  | Error in electron count due to remaining E_F inaccuracy: 0.42632564E-13
  | Maximum occupation number of highest empty state:  0.00E+00

  Highest occupied state (VBM) at     -2.57929869 eV
  | Occupation number:      1.00000000

  Lowest unoccupied state (CBM) at    -1.39526328 eV
  | Occupation number:      0.00000000

  Overall HOMO-LUMO gap:      1.18403542 eV.

  Total energy components:
  | Sum of eigenvalues            :        -126.69446666 Ha       -3447.53184632 eV
  | XC energy correction          :         -28.09031621 Ha        -764.37639508 eV
  | XC potential correction       :          35.90612860 Ha         977.05547111 eV
  | Free-atom electrostatic energy:        -107.34021738 Ha       -2920.87592739 eV
  | Hartree energy correction     :          -3.92514742 Ha        -106.80869561 eV
  | van der Waals energy corr.    :           0.00000000 Ha           0.00000000 eV
  | Entropy correction            :          -0.00010367 Ha          -0.00282095 eV
  | ---------------------------
  | Total energy                  :        -230.14401907 Ha       -6262.53739329 eV
  | Total energy, T -> 0          :        -230.14412274 Ha       -6262.54021424 eV  <-- do not rely on this value for anything but (periodic) metals
  | Electronic free energy        :        -230.14422641 Ha       -6262.54303519 eV

  Derived energy quantities:
  | Kinetic energy                :         230.44393417 Ha        6270.69849842 eV
  | Electrostatic energy          :        -432.49763703 Ha      -11768.85949663 eV
  | Energy correction for multipole
  | error in Hartree potential    :           0.00110228 Ha           0.02999456 eV
  | Sum of eigenvalues per atom                           :        -344.75318463 eV
  | Total energy (T->0) per atom                          :        -626.25402142 eV  <-- do not rely on this value for anything but (periodic) metals
  | Electronic free energy per atom                       :        -626.25430352 eV

  Self-consistency convergence accuracy:
  | Change of charge density      : 0.3667E+00
  | Change of sum of eigenvalues  : 0.7499E+02 eV
  | Change of total energy        : 0.2218E+01 eV

  End self-consistency iteration #     2       :  max(cpu_time)    wall_clock(cpu1)
  | Time for this iteration                    :        0.741 s           0.741 s
  | Charge density update                      :        0.233 s           0.234 s
  | Density mixing                             :        0.004 s           0.003 s
  | Hartree multipole update                   :        0.004 s           0.004 s
  | Hartree multipole summation                :        0.144 s           0.145 s
  | Integration                                :        0.336 s           0.336 s
  | Solution of K.-S. eqns.                    :        0.018 s           0.019 s
  | Total energy evaluation                    :        0.000 s           0.000 s
------------------------------------------------------------

------------------------------------------------------------
          Begin self-consistency iteration #    3

  Date     :  20150727, Time     :  130504.702
------------------------------------------------------------
  Evaluating new KS density.
  Integration grid: deviation in total charge (<rho> - N_e) =   5.329071E-14
  Pulay mixing of updated and previous charge densities.

  Evaluating partitioned Hartree potential by multipole expansion.
  | Analytical far-field extrapolation by fixed multipoles:
  | Hartree multipole sum: apparent total charge =  -0.158632E-05
  Summing up the Hartree potential.
  Time summed over all CPUs for potential: real work        1.144 s, elapsed        1.151 s
  | RMS charge density error from multipole expansion :   0.105638E-01

  Integrating Hamiltonian matrix: batch-based integration.
  Time summed over all CPUs for integration: real work        2.600 s, elapsed        2.666 s

  Updating Kohn-Sham eigenvalues, eigenvectors, occupation numbers, and Fermi level.
  Solving generalized eigenproblem
  Updating Kohn-Sham eigenvalues and eigenfunctions.
  Solving real generalised eigenvalue problem by standard LAPACK (fast)
  Determining occupation numbers for Kohn-Sham eigenstates.
  | Chemical potential (Fermi level) in eV                 : -.26983436E+01
  | Error in electron count due to remaining E_F inaccuracy: -.71821660E-09
  | Maximum occupation number of highest empty state:  0.00E+00

  Highest occupied state (VBM) at     -7.07497904 eV
  | Occupation number:      2.00000000

  Lowest unoccupied state (CBM) at    -2.69834362 eV
  | Occupation number:      1.00000000

  Overall HOMO-LUMO gap:      4.37663542 eV.

  Total energy components:
  | Sum of eigenvalues            :        -126.89456257 Ha       -3452.97673301 eV
  | XC energy correction          :         -28.07460632 Ha        -763.94890726 eV
  | XC potential correction       :          35.88060523 Ha         976.36094510 eV
  | Free-atom electrostatic energy:        -107.34021738 Ha       -2920.87592739 eV
  | Hartree energy correction     :          -3.71255040 Ha        -101.02363639 eV
  | van der Waals energy corr.    :           0.00000000 Ha           0.00000000 eV
  | Entropy correction            :          -0.00010367 Ha          -0.00282095 eV
  | ---------------------------
  | Total energy                  :        -230.14133143 Ha       -6262.46425894 eV
  | Total energy, T -> 0          :        -230.14143510 Ha       -6262.46707989 eV  <-- do not rely on this value for anything but (periodic) metals
  | Electronic free energy        :        -230.14153877 Ha       -6262.46990084 eV

  Derived energy quantities:
  | Kinetic energy                :         229.36004727 Ha        6241.20443528 eV
  | Electrostatic energy          :        -431.42677239 Ha      -11739.71978697 eV
  | Energy correction for multipole
  | error in Hartree potential    :           0.00012842 Ha           0.00349446 eV
  | Sum of eigenvalues per atom                           :        -345.29767330 eV
  | Total energy (T->0) per atom                          :        -626.24670799 eV  <-- do not rely on this value for anything but (periodic) metals
  | Electronic free energy per atom                       :        -626.24699008 eV

  Self-consistency convergence accuracy:
  | Change of charge density      : 0.1859E+00
  | Change of sum of eigenvalues  : -.5445E+01 eV
  | Change of total energy        : 0.7313E-01 eV

  End self-consistency iteration #     3       :  max(cpu_time)    wall_clock(cpu1)
  | Time for this iteration                    :        0.736 s           0.736 s
  | Charge density update                      :        0.231 s           0.231 s
  | Density mixing                             :        0.004 s           0.004 s
  | Hartree multipole update                   :        0.004 s           0.004 s
  | Hartree multipole summation                :        0.145 s           0.145 s
  | Integration                                :        0.334 s           0.334 s
  | Solution of K.-S. eqns.                    :        0.018 s           0.018 s
  | Total energy evaluation                    :        0.000 s           0.000 s
------------------------------------------------------------

------------------------------------------------------------
          Begin self-consistency iteration #    4

  Date     :  20150727, Time     :  130505.439
------------------------------------------------------------
  Evaluating new KS density.
  Integration grid: deviation in total charge (<rho> - N_e) =  -7.182166E-10
  Pulay mixing of updated and previous charge densities.

  Evaluating partitioned Hartree potential by multipole expansion.
  | Analytical far-field extrapolation by fixed multipoles:
  | Hartree multipole sum: apparent total charge =  -0.179803E-05
  Summing up the Hartree potential.
  Time summed over all CPUs for potential: real work        1.144 s, elapsed        1.151 s
  | RMS charge density error from multipole expansion :   0.139504E-01

  Integrating Hamiltonian matrix: batch-based integration.
  Time summed over all CPUs for integration: real work        2.601 s, elapsed        2.659 s

  Updating Kohn-Sham eigenvalues, eigenvectors, occupation numbers, and Fermi level.
  Solving generalized eigenproblem
  Updating Kohn-Sham eigenvalues and eigenfunctions.
  Solving real generalised eigenvalue problem by standard LAPACK (fast)
  Determining occupation numbers for Kohn-Sham eigenstates.
  | Chemical potential (Fermi level) in eV                 : -.26386008E+01
  | Error in electron count due to remaining E_F inaccuracy: 0.42632564E-13
  | Maximum occupation number of highest empty state:  0.00E+00

  Highest occupied state (VBM) at     -2.63860080 eV
  | Occupation number:      1.00000000

  Lowest unoccupied state (CBM) at    -1.18915298 eV
  | Occupation number:      0.00000000

  Overall HOMO-LUMO gap:      1.44944782 eV.

  Total energy components:
  | Sum of eigenvalues            :        -126.04577323 Ha       -3429.88000006 eV
  | XC energy correction          :         -28.18667022 Ha        -766.99832109 eV
  | XC potential correction       :          36.02521999 Ha         980.29611288 eV
  | Free-atom electrostatic energy:        -107.34021738 Ha       -2920.87592739 eV
  | Hartree energy correction     :          -4.59013584 Ha        -124.90395133 eV
  | van der Waals energy corr.    :           0.00000000 Ha           0.00000000 eV
  | Entropy correction            :          -0.00010367 Ha          -0.00282095 eV
  | ---------------------------
  | Total energy                  :        -230.13757668 Ha       -6262.36208698 eV
  | Total energy, T -> 0          :        -230.13768035 Ha       -6262.36490793 eV  <-- do not rely on this value for anything but (periodic) metals
  | Electronic free energy        :        -230.13778402 Ha       -6262.36772888 eV

  Derived energy quantities:
  | Kinetic energy                :         229.46432620 Ha        6244.04200920 eV
  | Electrostatic energy          :        -431.41523266 Ha      -11739.40577509 eV
  | Energy correction for multipole
  | error in Hartree potential    :          -0.00000586 Ha          -0.00015942 eV
  | Sum of eigenvalues per atom                           :        -342.98800001 eV
  | Total energy (T->0) per atom                          :        -626.23649079 eV  <-- do not rely on this value for anything but (periodic) metals
  | Electronic free energy per atom                       :        -626.23677289 eV

  Self-consistency convergence accuracy:
  | Change of charge density      : 0.8801E-01
  | Change of sum of eigenvalues  : 0.2310E+02 eV
  | Change of total energy        : 0.1022E+00 eV

  End self-consistency iteration #     4       :  max(cpu_time)    wall_clock(cpu1)
  | Time for this iteration                    :        0.737 s           0.736 s
  | Charge density update                      :        0.231 s           0.230 s
  | Density mixing                             :        0.006 s           0.006 s
  | Hartree multipole update                   :        0.004 s           0.004 s
  | Hartree multipole summation                :        0.144 s           0.144 s
  | Integration                                :        0.333 s           0.333 s
  | Solution of K.-S. eqns.                    :        0.019 s           0.019 s
  | Total energy evaluation                    :        0.000 s           0.000 s
------------------------------------------------------------

------------------------------------------------------------
          Begin self-consistency iteration #    5

  Date     :  20150727, Time     :  130506.175
------------------------------------------------------------
  Evaluating new KS density.
  Integration grid: deviation in total charge (<rho> - N_e) =   4.263256E-14
  Pulay mixing of updated and previous charge densities.

  Evaluating partitioned Hartree potential by multipole expansion.
  | Analytical far-field extrapolation by fixed multipoles:
  | Hartree multipole sum: apparent total charge =  -0.173652E-05
  Summing up the Hartree potential.
  Time summed over all CPUs for potential: real work        1.144 s, elapsed        1.151 s
  | RMS charge density error from multipole expansion :   0.137721E-01

  Integrating Hamiltonian matrix: batch-based integration.
  Time summed over all CPUs for integration: real work        2.599 s, elapsed        2.660 s

  Updating Kohn-Sham eigenvalues, eigenvectors, occupation numbers, and Fermi level.
  Solving generalized eigenproblem
  Updating Kohn-Sham eigenvalues and eigenfunctions.
  Solving real generalised eigenvalue problem by standard LAPACK (fast)
  Determining occupation numbers for Kohn-Sham eigenstates.
  | Chemical potential (Fermi level) in eV                 : -.26188154E+01
  | Error in electron count due to remaining E_F inaccuracy: 0.00000000E+00
  | Maximum occupation number of highest empty state:  0.00E+00

  Highest occupied state (VBM) at     -2.61881537 eV
  | Occupation number:      1.00000000

  Lowest unoccupied state (CBM) at    -2.61881537 eV
  | Occupation number:      1.00000000

  Overall HOMO-LUMO gap:      0.00000000 eV.

  Total energy components:
  | Sum of eigenvalues            :        -126.13000284 Ha       -3432.17200425 eV
  | XC energy correction          :         -28.17646137 Ha        -766.72052427 eV
  | XC potential correction       :          36.01179973 Ha         979.93092888 eV
  | Free-atom electrostatic energy:        -107.34021738 Ha       -2920.87592739 eV
  | Hartree energy correction     :          -4.50239739 Ha        -122.51646656 eV
  | van der Waals energy corr.    :           0.00000000 Ha           0.00000000 eV
  | Entropy correction            :          -0.00010367 Ha          -0.00282095 eV
  | ---------------------------
  | Total energy                  :        -230.13727925 Ha       -6262.35399358 eV
  | Total energy, T -> 0          :        -230.13738292 Ha       -6262.35681453 eV  <-- do not rely on this value for anything but (periodic) metals
  | Electronic free energy        :        -230.13748659 Ha       -6262.35963547 eV

  Derived energy quantities:
  | Kinetic energy                :         229.48276193 Ha        6244.54367103 eV
  | Electrostatic energy          :        -431.44357981 Ha      -11740.17714034 eV
  | Energy correction for multipole
  | error in Hartree potential    :           0.00011440 Ha           0.00311308 eV
  | Sum of eigenvalues per atom                           :        -343.21720043 eV
  | Total energy (T->0) per atom                          :        -626.23568145 eV  <-- do not rely on this value for anything but (periodic) metals
  | Electronic free energy per atom                       :        -626.23596355 eV

  Self-consistency convergence accuracy:
  | Change of charge density      : 0.1860E-01
  | Change of sum of eigenvalues  : -.2292E+01 eV
  | Change of total energy        : 0.8093E-02 eV

  End self-consistency iteration #     5       :  max(cpu_time)    wall_clock(cpu1)
  | Time for this iteration                    :        0.739 s           0.739 s
  | Charge density update                      :        0.232 s           0.232 s
  | Density mixing                             :        0.006 s           0.006 s
  | Hartree multipole update                   :        0.004 s           0.004 s
  | Hartree multipole summation                :        0.145 s           0.144 s
  | Integration                                :        0.333 s           0.334 s
  | Solution of K.-S. eqns.                    :        0.018 s           0.018 s
  | Total energy evaluation                    :        0.001 s           0.000 s
------------------------------------------------------------

------------------------------------------------------------
          Begin self-consistency iteration #    6

  Date     :  20150727, Time     :  130506.914
------------------------------------------------------------
  Evaluating new KS density.
  Integration grid: deviation in total charge (<rho> - N_e) =   1.776357E-14
  Pulay mixing of updated and previous charge densities.

  Evaluating partitioned Hartree potential by multipole expansion.
  | Analytical far-field extrapolation by fixed multipoles:
  | Hartree multipole sum: apparent total charge =  -0.171763E-05
  Summing up the Hartree potential.
  Time summed over all CPUs for potential: real work        1.144 s, elapsed        1.151 s
  | RMS charge density error from multipole expansion :   0.138335E-01

  Integrating Hamiltonian matrix: batch-based integration.
  Time summed over all CPUs for integration: real work        2.599 s, elapsed        2.661 s

  Updating Kohn-Sham eigenvalues, eigenvectors, occupation numbers, and Fermi level.
  Solving generalized eigenproblem
  Updating Kohn-Sham eigenvalues and eigenfunctions.
  Solving real generalised eigenvalue problem by standard LAPACK (fast)
  Determining occupation numbers for Kohn-Sham eigenstates.
  | Chemical potential (Fermi level) in eV                 : -.26200707E+01
  | Error in electron count due to remaining E_F inaccuracy: -.54022919E-09
  | Maximum occupation number of highest empty state:  0.00E+00

  Highest occupied state (VBM) at     -6.19434615 eV
  | Occupation number:      2.00000000

  Lowest unoccupied state (CBM) at    -2.62007073 eV
  | Occupation number:      1.00000000

  Overall HOMO-LUMO gap:      3.57427542 eV.

  Total energy components:
  | Sum of eigenvalues            :        -126.14211456 Ha       -3432.50158090 eV
  | XC energy correction          :         -28.17544085 Ha        -766.69275438 eV
  | XC potential correction       :          36.01038125 Ha         979.89233008 eV
  | Free-atom electrostatic energy:        -107.34021738 Ha       -2920.87592739 eV
  | Hartree energy correction     :          -4.48988155 Ha        -122.17589317 eV
  | van der Waals energy corr.    :           0.00000000 Ha           0.00000000 eV
  | Entropy correction            :          -0.00010367 Ha          -0.00282095 eV
  | ---------------------------
  | Total energy                  :        -230.13727309 Ha       -6262.35382576 eV
  | Total energy, T -> 0          :        -230.13737676 Ha       -6262.35664671 eV  <-- do not rely on this value for anything but (periodic) metals
  | Electronic free energy        :        -230.13748042 Ha       -6262.35946766 eV

  Derived energy quantities:
  | Kinetic energy                :         229.47548408 Ha        6244.34563064 eV
  | Electrostatic energy          :        -431.43731632 Ha      -11740.00670202 eV
  | Energy correction for multipole
  | error in Hartree potential    :           0.00012283 Ha           0.00334233 eV
  | Sum of eigenvalues per atom                           :        -343.25015809 eV
  | Total energy (T->0) per atom                          :        -626.23566467 eV  <-- do not rely on this value for anything but (periodic) metals
  | Electronic free energy per atom                       :        -626.23594677 eV

  Self-consistency convergence accuracy:
  | Change of charge density      : 0.7851E-02
  | Change of sum of eigenvalues  : -.3296E+00 eV
  | Change of total energy        : 0.1678E-03 eV

  End self-consistency iteration #     6       :  max(cpu_time)    wall_clock(cpu1)
  | Time for this iteration                    :        0.739 s           0.739 s
  | Charge density update                      :        0.231 s           0.231 s
  | Density mixing                             :        0.007 s           0.007 s
  | Hartree multipole update                   :        0.004 s           0.004 s
  | Hartree multipole summation                :        0.145 s           0.144 s
  | Integration                                :        0.333 s           0.334 s
  | Solution of K.-S. eqns.                    :        0.018 s           0.018 s
  | Total energy evaluation                    :        0.001 s           0.000 s
------------------------------------------------------------

------------------------------------------------------------
          Begin self-consistency iteration #    7

  Date     :  20150727, Time     :  130507.653
------------------------------------------------------------
  Evaluating new KS density.
  Integration grid: deviation in total charge (<rho> - N_e) =  -5.402256E-10
  Pulay mixing of updated and previous charge densities.

  Evaluating partitioned Hartree potential by multipole expansion.
  | Analytical far-field extrapolation by fixed multipoles:
  | Hartree multipole sum: apparent total charge =  -0.161810E-05
  Summing up the Hartree potential.
  Time summed over all CPUs for potential: real work        1.144 s, elapsed        1.151 s
  | RMS charge density error from multipole expansion :   0.139200E-01

  Integrating Hamiltonian matrix: batch-based integration.
  Time summed over all CPUs for integration: real work        2.599 s, elapsed        2.659 s

  Updating Kohn-Sham eigenvalues, eigenvectors, occupation numbers, and Fermi level.
  Solving generalized eigenproblem
  Updating Kohn-Sham eigenvalues and eigenfunctions.
  Solving real generalised eigenvalue problem by standard LAPACK (fast)
  Determining occupation numbers for Kohn-Sham eigenstates.
  | Chemical potential (Fermi level) in eV                 : -.26167734E+01
  | Error in electron count due to remaining E_F inaccuracy: -.24377549E-08
  | Maximum occupation number of highest empty state:  0.00E+00

  Highest occupied state (VBM) at     -6.27484231 eV
  | Occupation number:      2.00000000

  Lowest unoccupied state (CBM) at    -2.61677339 eV
  | Occupation number:      1.00000000

  Overall HOMO-LUMO gap:      3.65806892 eV.

  Total energy components:
  | Sum of eigenvalues            :        -126.19441618 Ha       -3433.92478056 eV
  | XC energy correction          :         -28.17068709 Ha        -766.56339805 eV
  | XC potential correction       :          36.00388065 Ha         979.71543989 eV
  | Free-atom electrostatic energy:        -107.34021738 Ha       -2920.87592739 eV
  | Hartree energy correction     :          -4.43580023 Ha        -120.70426574 eV
  | van der Waals energy corr.    :           0.00000000 Ha           0.00000000 eV
  | Entropy correction            :          -0.00010367 Ha          -0.00282095 eV
  | ---------------------------
  | Total energy                  :        -230.13724024 Ha       -6262.35293185 eV
  | Total energy, T -> 0          :        -230.13734390 Ha       -6262.35575280 eV  <-- do not rely on this value for anything but (periodic) metals
  | Electronic free energy        :        -230.13744757 Ha       -6262.35857375 eV

  Derived energy quantities:
  | Kinetic energy                :         229.50736758 Ha        6245.21322471 eV
  | Electrostatic energy          :        -431.47392072 Ha      -11741.00275852 eV
  | Energy correction for multipole
  | error in Hartree potential    :           0.00025748 Ha           0.00700649 eV
  | Sum of eigenvalues per atom                           :        -343.39247806 eV
  | Total energy (T->0) per atom                          :        -626.23557528 eV  <-- do not rely on this value for anything but (periodic) metals
  | Electronic free energy per atom                       :        -626.23585737 eV

  Self-consistency convergence accuracy:
  | Change of charge density      : 0.6681E-02
  | Change of sum of eigenvalues  : -.1423E+01 eV
  | Change of total energy        : 0.8939E-03 eV

  End self-consistency iteration #     7       :  max(cpu_time)    wall_clock(cpu1)
  | Time for this iteration                    :        0.739 s           0.738 s
  | Charge density update                      :        0.230 s           0.230 s
  | Density mixing                             :        0.008 s           0.008 s
  | Hartree multipole update                   :        0.004 s           0.004 s
  | Hartree multipole summation                :        0.145 s           0.144 s
  | Integration                                :        0.333 s           0.334 s
  | Solution of K.-S. eqns.                    :        0.018 s           0.018 s
  | Total energy evaluation                    :        0.001 s           0.000 s
------------------------------------------------------------

------------------------------------------------------------
          Begin self-consistency iteration #    8

  Date     :  20150727, Time     :  130508.392
------------------------------------------------------------
  Evaluating new KS density.
  Integration grid: deviation in total charge (<rho> - N_e) =  -2.437751E-09
  Pulay mixing of updated and previous charge densities.

  Evaluating partitioned Hartree potential by multipole expansion.
  | Analytical far-field extrapolation by fixed multipoles:
  | Hartree multipole sum: apparent total charge =  -0.160954E-05
  Summing up the Hartree potential.
  Time summed over all CPUs for potential: real work        1.144 s, elapsed        1.151 s
  | RMS charge density error from multipole expansion :   0.139195E-01

  Integrating Hamiltonian matrix: batch-based integration.
  Time summed over all CPUs for integration: real work        2.594 s, elapsed        2.654 s

  Updating Kohn-Sham eigenvalues, eigenvectors, occupation numbers, and Fermi level.
  Solving generalized eigenproblem
  Updating Kohn-Sham eigenvalues and eigenfunctions.
  Solving real generalised eigenvalue problem by standard LAPACK (fast)
  Determining occupation numbers for Kohn-Sham eigenstates.
  | Chemical potential (Fermi level) in eV                 : -.26214533E+01
  | Error in electron count due to remaining E_F inaccuracy: 0.94608765E-11
  | Maximum occupation number of highest empty state:  0.00E+00

  Highest occupied state (VBM) at     -2.62145331 eV
  | Occupation number:      1.00000000

  Lowest unoccupied state (CBM) at    -1.23466244 eV
  | Occupation number:      0.00000000

  Overall HOMO-LUMO gap:      1.38679087 eV.

  Total energy components:
  | Sum of eigenvalues            :        -126.20720329 Ha       -3434.27273537 eV
  | XC energy correction          :         -28.16920281 Ha        -766.52300866 eV
  | XC potential correction       :          36.00190836 Ha         979.66177119 eV
  | Free-atom electrostatic energy:        -107.34021738 Ha       -2920.87592739 eV
  | Hartree energy correction     :          -4.42252339 Ha        -120.34298430 eV
  | van der Waals energy corr.    :           0.00000000 Ha           0.00000000 eV
  | Entropy correction            :          -0.00010367 Ha          -0.00282095 eV
  | ---------------------------
  | Total energy                  :        -230.13723850 Ha       -6262.35288452 eV
  | Total energy, T -> 0          :        -230.13734217 Ha       -6262.35570547 eV  <-- do not rely on this value for anything but (periodic) metals
  | Electronic free energy        :        -230.13744583 Ha       -6262.35852642 eV

  Derived energy quantities:
  | Kinetic energy                :         229.51088051 Ha        6245.30881656 eV
  | Electrostatic energy          :        -431.47891620 Ha      -11741.13869242 eV
  | Energy correction for multipole
  | error in Hartree potential    :           0.00027235 Ha           0.00741089 eV
  | Sum of eigenvalues per atom                           :        -343.42727354 eV
  | Total energy (T->0) per atom                          :        -626.23557055 eV  <-- do not rely on this value for anything but (periodic) metals
  | Electronic free energy per atom                       :        -626.23585264 eV

  Self-consistency convergence accuracy:
  | Change of charge density      : 0.1481E-02
  | Change of sum of eigenvalues  : -.3480E+00 eV
  | Change of total energy        : 0.4733E-04 eV

  End self-consistency iteration #     8       :  max(cpu_time)    wall_clock(cpu1)
  | Time for this iteration                    :        0.739 s           0.739 s
  | Charge density update                      :        0.231 s           0.230 s
  | Density mixing                             :        0.008 s           0.009 s
  | Hartree multipole update                   :        0.004 s           0.004 s
  | Hartree multipole summation                :        0.145 s           0.144 s
  | Integration                                :        0.332 s           0.333 s
  | Solution of K.-S. eqns.                    :        0.019 s           0.018 s
  | Total energy evaluation                    :        0.000 s           0.001 s
------------------------------------------------------------

------------------------------------------------------------
          Begin self-consistency iteration #    9

  Date     :  20150727, Time     :  130509.131
------------------------------------------------------------
  Evaluating new KS density.
  Integration grid: deviation in total charge (<rho> - N_e) =   9.450218E-12
  Pulay mixing of updated and previous charge densities.

  Evaluating partitioned Hartree potential by multipole expansion.
  | Analytical far-field extrapolation by fixed multipoles:
  | Hartree multipole sum: apparent total charge =  -0.160742E-05
  Summing up the Hartree potential.
  Time summed over all CPUs for potential: real work        1.144 s, elapsed        1.151 s
  | RMS charge density error from multipole expansion :   0.139145E-01

  Integrating Hamiltonian matrix: batch-based integration.
  Time summed over all CPUs for integration: real work        2.601 s, elapsed        2.655 s

  Updating Kohn-Sham eigenvalues, eigenvectors, occupation numbers, and Fermi level.
  Solving generalized eigenproblem
  Updating Kohn-Sham eigenvalues and eigenfunctions.
  Solving real generalised eigenvalue problem by standard LAPACK (fast)
  Determining occupation numbers for Kohn-Sham eigenstates.
  | Chemical potential (Fermi level) in eV                 : -.26235723E+01
  | Error in electron count due to remaining E_F inaccuracy: 0.10231815E-11
  | Maximum occupation number of highest empty state:  0.00E+00

  Highest occupied state (VBM) at     -2.62357231 eV
  | Occupation number:      1.00000000

  Lowest unoccupied state (CBM) at    -1.23340795 eV
  | Occupation number:      0.00000000

  Overall HOMO-LUMO gap:      1.39016436 eV.

  Total energy components:
  | Sum of eigenvalues            :        -126.20449225 Ha       -3434.19896418 eV
  | XC energy correction          :         -28.16944838 Ha        -766.52969094 eV
  | XC potential correction       :          36.00223871 Ha         979.67076038 eV
  | Free-atom electrostatic energy:        -107.34021738 Ha       -2920.87592739 eV
  | Hartree energy correction     :          -4.42531881 Ha        -120.41905179 eV
  | van der Waals energy corr.    :           0.00000000 Ha           0.00000000 eV
  | Entropy correction            :          -0.00010367 Ha          -0.00282095 eV
  | ---------------------------
  | Total energy                  :        -230.13723811 Ha       -6262.35287391 eV
  | Total energy, T -> 0          :        -230.13734178 Ha       -6262.35569485 eV  <-- do not rely on this value for anything but (periodic) metals
  | Electronic free energy        :        -230.13744544 Ha       -6262.35851580 eV

  Derived energy quantities:
  | Kinetic energy                :         229.51370298 Ha        6245.38561976 eV
  | Electrostatic energy          :        -431.48149271 Ha      -11741.20880274 eV
  | Energy correction for multipole
  | error in Hartree potential    :           0.00027109 Ha           0.00737687 eV
  | Sum of eigenvalues per atom                           :        -343.41989642 eV
  | Total energy (T->0) per atom                          :        -626.23556949 eV  <-- do not rely on this value for anything but (periodic) metals
  | Electronic free energy per atom                       :        -626.23585158 eV

  Self-consistency convergence accuracy:
  | Change of charge density      : 0.5470E-03
  | Change of sum of eigenvalues  : 0.7377E-01 eV
  | Change of total energy        : 0.1062E-04 eV

  End self-consistency iteration #     9       :  max(cpu_time)    wall_clock(cpu1)
  | Time for this iteration                    :        0.741 s           0.741 s
  | Charge density update                      :        0.232 s           0.231 s
  | Density mixing                             :        0.009 s           0.010 s
  | Hartree multipole update                   :        0.004 s           0.004 s
  | Hartree multipole summation                :        0.145 s           0.144 s
  | Integration                                :        0.333 s           0.333 s
  | Solution of K.-S. eqns.                    :        0.018 s           0.018 s
  | Total energy evaluation                    :        0.000 s           0.001 s
------------------------------------------------------------

------------------------------------------------------------
          Begin self-consistency iteration #   10

  Date     :  20150727, Time     :  130509.872
------------------------------------------------------------
  Evaluating new KS density.
  Integration grid: deviation in total charge (<rho> - N_e) =   1.026734E-12
  Pulay mixing of updated and previous charge densities.

  Evaluating partitioned Hartree potential by multipole expansion.
  | Analytical far-field extrapolation by fixed multipoles:
  | Hartree multipole sum: apparent total charge =  -0.160338E-05
  Summing up the Hartree potential.
  Time summed over all CPUs for potential: real work        1.144 s, elapsed        1.151 s
  | RMS charge density error from multipole expansion :   0.139176E-01

  Integrating Hamiltonian matrix: batch-based integration.
  Time summed over all CPUs for integration: real work        2.596 s, elapsed        2.669 s

  Updating Kohn-Sham eigenvalues, eigenvectors, occupation numbers, and Fermi level.
  Solving generalized eigenproblem
  Updating Kohn-Sham eigenvalues and eigenfunctions.
  Solving real generalised eigenvalue problem by standard LAPACK (fast)
  Determining occupation numbers for Kohn-Sham eigenstates.
  | Chemical potential (Fermi level) in eV                 : -.26234544E+01
  | Error in electron count due to remaining E_F inaccuracy: 0.14921397E-11
  | Maximum occupation number of highest empty state:  0.00E+00

  Highest occupied state (VBM) at     -2.62345443 eV
  | Occupation number:      1.00000000

  Lowest unoccupied state (CBM) at    -1.23355117 eV
  | Occupation number:      0.00000000

  Overall HOMO-LUMO gap:      1.38990326 eV.

  Total energy components:
  | Sum of eigenvalues            :        -126.20578659 Ha       -3434.23418493 eV
  | XC energy correction          :         -28.16928408 Ha        -766.52522026 eV
  | XC potential correction       :          36.00201911 Ha         979.66478489 eV
  | Free-atom electrostatic energy:        -107.34021738 Ha       -2920.87592739 eV
  | Hartree energy correction     :          -4.42396921 Ha        -120.38232732 eV
  | van der Waals energy corr.    :           0.00000000 Ha           0.00000000 eV
  | Entropy correction            :          -0.00010367 Ha          -0.00282095 eV
  | ---------------------------
  | Total energy                  :        -230.13723815 Ha       -6262.35287501 eV
  | Total energy, T -> 0          :        -230.13734182 Ha       -6262.35569595 eV  <-- do not rely on this value for anything but (periodic) metals
  | Electronic free energy        :        -230.13744548 Ha       -6262.35851690 eV

  Derived energy quantities:
  | Kinetic energy                :         229.51348004 Ha        6245.37955323 eV
[...]
  | Atom     7: H
  |   Hirshfeld charge        :      0.14920943
  |   Free atom volume        :     10.44207651
  |   Hirshfeld volume        :      7.00975996
  |   Hirshfeld dipole vector :      0.02979131       0.10546218      -0.04203543
  |   Hirshfeld dipole moment :      0.11737449
  |   Hirshfeld second moments:      0.11770930      -0.00961964       0.00411261
  |                                 -0.00961964       0.09624950      -0.01685211
  |                                  0.00411261      -0.01685211       0.09859065
  ----------------------------------------------------------------------
  | Atom     8: O
  |   Hirshfeld charge        :     -0.33411312
  |   Free atom volume        :     23.95238533
  |   Hirshfeld volume        :     23.46779273
  |   Hirshfeld dipole vector :     -0.00705739       0.07295150      -0.01076555
  |   Hirshfeld dipole moment :      0.07407851
  |   Hirshfeld second moments:     -0.03193734      -0.01552997      -0.06107498
  |                                 -0.01552997      -0.03484175       0.00686954
  |                                 -0.06107498       0.00686954       0.00125215
  ----------------------------------------------------------------------
  | Atom     9: H
  |   Hirshfeld charge        :      0.12365299
  |   Free atom volume        :     10.44207651
  |   Hirshfeld volume        :      6.99705626
  |   Hirshfeld dipole vector :     -0.06323124       0.09005981       0.06393245
  |   Hirshfeld dipole moment :      0.12726475
  |   Hirshfeld second moments:      0.09374020       0.00233118      -0.01784223
  |                                  0.00233118       0.09404711      -0.00786090
  |                                 -0.01784223      -0.00786090       0.10831775
  ----------------------------------------------------------------------
  | Atom    10: H
  |   Hirshfeld charge        :      0.08552023
  |   Free atom volume        :     10.44207651
  |   Hirshfeld volume        :      8.65190684
  |   Hirshfeld dipole vector :      0.01941840       0.05115620      -0.03846242
  |   Hirshfeld dipole moment :      0.06688340
  |   Hirshfeld second moments:      0.05704099      -0.01865920       0.00944194
  |                                 -0.01865920       0.07080335       0.01121972
  |                                  0.00944194       0.01121972       0.03704139
  ----------------------------------------------------------------------


  Total energy components:
  | Sum of eigenvalues            :        -126.20533087 Ha       -3434.22178422 eV
  | XC energy correction          :         -28.16932112 Ha        -766.52622823 eV
  | XC potential correction       :          36.00206956 Ha         979.66615766 eV
  | Free-atom electrostatic energy:        -107.34021738 Ha       -2920.87592739 eV
  | Hartree energy correction     :          -4.42443839 Ha        -120.39509423 eV
  | van der Waals energy corr.    :          -0.00097104 Ha          -0.02642341 eV
  | Entropy correction            :          -0.00010367 Ha          -0.00282095 eV
  | ---------------------------
  | Total energy                  :        -230.13820924 Ha       -6262.37929982 eV
  | Total energy, T -> 0          :        -230.13831291 Ha       -6262.38212077 eV  <-- do not rely on this value for anything but (periodic) metals
  | Electronic free energy        :        -230.13841658 Ha       -6262.38494172 eV

  Derived energy quantities:
  | Kinetic energy                :         229.51329765 Ha        6245.37459017 eV
  | Electrostatic energy          :        -431.48121472 Ha      -11741.20123835 eV
  | Energy correction for multipole
  | error in Hartree potential    :           0.00027139 Ha           0.00738477 eV
  | Sum of eigenvalues per atom                           :        -343.42217842 eV
  | Total energy (T->0) per atom                          :        -626.23821208 eV  <-- do not rely on this value for anything but (periodic) metals
  | Electronic free energy per atom                       :        -626.23849417 eV

  atomic forces [eV/Ang]:
  -----------------------
  atom #    1
   Hellmann-Feynman + Multipole  : -.266573E+01 -.690018E+01 -.793860E+01
   Pulay + GGA                   : 0.212666E+01 0.778452E+01 0.733391E+01
   Van der Waals               : -.296797E-04 0.500115E-02 0.145667E-02
   ----------------------------------------------------------------
   Total forces(   1)            : -.539108E+00 0.889348E+00 -.603236E+00
  atom #    2
   Hellmann-Feynman + Multipole  : 0.406694E+00 -.849936E+00 0.336273E+00
   Pulay + GGA                   : -.831966E-01 0.119563E+00 -.942211E-01
   Van der Waals               : -.744323E-03 0.711843E-03 0.125237E-02
   ----------------------------------------------------------------
   Total forces(   2)            : 0.322753E+00 -.729662E+00 0.243304E+00
  atom #    3
   Hellmann-Feynman + Multipole  : 0.759220E-01 -.903412E-01 0.662649E-01
   Pulay + GGA                   : 0.183934E+00 0.390325E-01 0.178655E-01
   Van der Waals               : -.104791E-02 0.390190E-02 0.103155E-02
   ----------------------------------------------------------------
   Total forces(   3)            : 0.258808E+00 -.474068E-01 0.851620E-01
  atom #    4
   Hellmann-Feynman + Multipole  : 0.789469E-02 -.151887E-01 0.132494E+00
   Pulay + GGA                   : -.439626E-01 -.474458E-01 0.159550E+00
   Van der Waals               : -.583592E-04 0.453954E-02 0.684011E-03
   ----------------------------------------------------------------
   Total forces(   4)            : -.361263E-01 -.580949E-01 0.292729E+00
  atom #    5
   Hellmann-Feynman + Multipole  : -.127683E+02 -.544432E+01 -.133821E+01
   Pulay + GGA                   : 0.139128E+02 0.687169E+01 0.678907E+00
   Van der Waals               : 0.918213E-03 -.310131E-02 -.516800E-03
   ----------------------------------------------------------------
   Total forces(   5)            : 0.114540E+01 0.142428E+01 -.659816E+00
  atom #    6
   Hellmann-Feynman + Multipole  : -.490186E+00 -.234460E-01 -.102812E+00
   Pulay + GGA                   : 0.130046E+00 -.608261E-01 0.221221E-01
   Van der Waals               : 0.199118E-02 -.314505E-02 -.245511E-02
   ----------------------------------------------------------------
   Total forces(   6)            : -.358149E+00 -.874171E-01 -.831446E-01
  atom #    7
   Hellmann-Feynman + Multipole  : -.729381E+00 -.140265E+01 0.676008E+00
   Pulay + GGA                   : 0.507221E-01 0.102169E+00 -.715096E-01
   Van der Waals               : -.750989E-03 -.191037E-02 0.786090E-03
   ----------------------------------------------------------------
   Total forces(   7)            : -.679410E+00 -.130239E+01 0.605284E+00
  atom #    8
   Hellmann-Feynman + Multipole  : 0.122550E+01 -.154584E+02 0.168494E+01
   Pulay + GGA                   : -.232540E+00 0.156024E+02 -.302560E+01
   Van der Waals               : -.223178E-02 -.258689E-02 0.764430E-03
   ----------------------------------------------------------------
   Total forces(   8)            : 0.990727E+00 0.141463E+00 -.133990E+01
  atom #    9
   Hellmann-Feynman + Multipole  : -.256429E+00 0.447210E+00 0.244428E+00
   Pulay + GGA                   : -.715800E-01 0.952564E-01 0.835395E-01
   Van der Waals               : 0.274311E-02 -.513455E-03 -.334329E-02
   ----------------------------------------------------------------
   Total forces(   9)            : -.325265E+00 0.541953E+00 0.324624E+00
  atom #   10
   Hellmann-Feynman + Multipole  : -.806691E+00 -.830028E+00 0.119149E+01
   Pulay + GGA                   : 0.353856E-01 0.667182E-01 -.646640E-01
   Van der Waals               : -.789465E-03 -.289736E-02 0.340088E-03
   ----------------------------------------------------------------
   Total forces(  10)            : -.772095E+00 -.766208E+00 0.112717E+01
  Timings for vdw_correction_hirshfeld (Tkatchenko-Scheffler 2009):
  | CPU time:        1.914 s, Wall clock time:        1.913 s.
  Removing unitary transformations (pure translations, rotations) from forces on atoms.
  Atomic forces before filtering:
  | Net force on center of mass :  0.753927E-02 0.586395E-02 -.782079E-02 eV/A
  | Net torque on center of mass:  -.445098E-03 0.127458E-01 -.956582E-02 eV
  Atomic forces after filtering:
  | Net force on center of mass :  0.267609E-15 -.356812E-15 -.178406E-15 eV/A
  | Net torque on center of mass:  0.000000E+00 0.944085E-16 -.188817E-15 eV
 
  Energy and forces in a compact form:
  | Total energy uncorrected      :         -0.626237929981924E+04 eV
  | Total energy corrected        :         -0.626238212076716E+04 eV  <-- do not rely on this value for anything but (periodic) metals
  | Electronic free energy        :         -0.626238494171508E+04 eV
  Total atomic forces (unitary forces cleaned) [eV/Ang]:
  |   1         -0.539163315130816E+00          0.888837398229289E+00         -0.602416229995046E+00
  |   2          0.322849257294149E+00         -0.730179097997230E+00          0.243907556936632E+00
  |   3          0.258714411776737E+00         -0.478674279026492E-01          0.865041909330002E-01
  |   4         -0.366665517571124E-01         -0.586729840156329E-01          0.293378905628403E+00
  |   5          0.114480339044753E+01          0.142373082891803E+01         -0.658780600632211E+00
  |   6         -0.358899923927391E+00         -0.879341820598705E-01         -0.816951458603918E-01
  |   7         -0.679839111219161E+00         -0.130289185502147E+01          0.606534499291999E+00
  |   8          0.988975276750906E+00          0.140714257667984E+00         -0.133969352867175E+01
  |   9         -0.327298876759874E+00          0.541153780622017E+00          0.324623900147869E+00
  |  10         -0.773474557474971E+00         -0.766890718440466E+00          0.112763645222150E+01
 
  ------------------------------------ 
  Start decomposition of the XC Energy 
  ------------------------------------ 
  Hartree-Fock part   :          0.000000000 Ha              0.000000000 eV
  ------------------------------------ 
  X Energy            :        -27.175966421 Ha           -739.495671449 eV
  C Energy GGA        :         -0.993354703 Ha            -27.030556780 eV
  Total XC Energy     :        -28.169321125 Ha           -766.526228229 eV
  LDA X and C from self-consistent density 
  X Energy LDA        :        -24.471985792 Ha           -665.916614873 eV
  C Energy LDA        :         -2.014340323 Ha            -54.812989053 eV
  ------------------------------------ 
  End decomposition of the XC Energy 
  ------------------------------------ 
  Performing Hirshfeld analysis of fragment charges and moments.
  ----------------------------------------------------------------------
  | Atom     1: O
  |   Hirshfeld charge        :     -0.11778449
  |   Free atom volume        :     23.95238533
  |   Hirshfeld volume        :     24.08586391
  |   Hirshfeld dipole vector :     -0.00175303       0.02231831       0.02367204
  |   Hirshfeld dipole moment :      0.03258137
  |   Hirshfeld second moments:      0.03761121      -0.00525590      -0.01267252
  |                                 -0.00525590      -0.01035572      -0.02891904
  |                                 -0.01267252      -0.02891904       0.01973313
  ----------------------------------------------------------------------
  | Atom     2: H
  |   Hirshfeld charge        :      0.05930665
  |   Free atom volume        :     10.44207651
  |   Hirshfeld volume        :     13.36910778
  |   Hirshfeld dipole vector :     -0.00201135       0.00265824       0.02049864
  |   Hirshfeld dipole moment :      0.02076791
  |   Hirshfeld second moments:     -0.03562869       0.00135953       0.00087104
  |                                  0.00135953      -0.02926963       0.01234635
  |                                  0.00087104       0.01234635      -0.03389612
  ----------------------------------------------------------------------
  | Atom     3: H
  |   Hirshfeld charge        :      0.05647105
  |   Free atom volume        :     10.44207651
  |   Hirshfeld volume        :     15.04291720
  |   Hirshfeld dipole vector :     -0.01298557       0.00575870      -0.00030536
  |   Hirshfeld dipole moment :      0.01420849
  |   Hirshfeld second moments:     -0.06814625      -0.01084857      -0.01274330
  |                                 -0.01084857      -0.04739292       0.00114973
  |                                 -0.01274330       0.00114973      -0.06058460
  ----------------------------------------------------------------------
  | Atom     4: H
  |   Hirshfeld charge        :      0.09623075
  |   Free atom volume        :     10.44207651
  |   Hirshfeld volume        :     13.10462287
  |   Hirshfeld dipole vector :     -0.02454655       0.00266849       0.02786939
  |   Hirshfeld dipole moment :      0.03723381
  |   Hirshfeld second moments:     -0.01511899       0.00180915      -0.01474008
  |                                  0.00180915      -0.00843723      -0.00848919
  |                                 -0.01474008      -0.00848919      -0.02285554
  ----------------------------------------------------------------------
  | Atom     5: O
  |   Hirshfeld charge        :     -0.24018609
  |   Free atom volume        :     23.95238533
  |   Hirshfeld volume        :     21.92088509
  |   Hirshfeld dipole vector :      0.01598548       0.03060641       0.03618398
  |   Hirshfeld dipole moment :      0.05001568
  |   Hirshfeld second moments:      0.04313993      -0.01493764      -0.00332359
  |                                 -0.01493764       0.03777862      -0.05265427
  |                                 -0.00332359      -0.05265427       0.00795846
  ----------------------------------------------------------------------
  | Atom     6: H
  |   Hirshfeld charge        :      0.12162128
  |   Free atom volume        :     10.44207651
  |   Hirshfeld volume        :      8.99077449
  |   Hirshfeld dipole vector :      0.07594570      -0.00731347       0.04853366
  |   Hirshfeld dipole moment :      0.09042539
  |   Hirshfeld second moments:      0.07048078       0.02210344      -0.00125663
  |                                  0.02210344       0.05899067      -0.01232916
  |                                 -0.00125663      -0.01232916       0.06099611
  ----------------------------------------------------------------------
  | Atom     7: H
  |   Hirshfeld charge        :      0.14920943
  |   Free atom volume        :     10.44207651
  |   Hirshfeld volume        :      7.00975996
  |   Hirshfeld dipole vector :      0.02979131       0.10546218      -0.04203543
  |   Hirshfeld dipole moment :      0.11737449
  |   Hirshfeld second moments:      0.11770930      -0.00961964       0.00411261
  |                                 -0.00961964       0.09624950      -0.01685211
  |                                  0.00411261      -0.01685211       0.09859065
  ----------------------------------------------------------------------
  | Atom     8: O
  |   Hirshfeld charge        :     -0.33411312
  |   Free atom volume        :     23.95238533
  |   Hirshfeld volume        :     23.46779273
  |   Hirshfeld dipole vector :     -0.00705739       0.07295150      -0.01076555
  |   Hirshfeld dipole moment :      0.07407851
  |   Hirshfeld second moments:     -0.03193734      -0.01552997      -0.06107498
  |                                 -0.01552997      -0.03484175       0.00686954
  |                                 -0.06107498       0.00686954       0.00125215
  ----------------------------------------------------------------------
  | Atom     9: H
  |   Hirshfeld charge        :      0.12365299
  |   Free atom volume        :     10.44207651
  |   Hirshfeld volume        :      6.99705626
  |   Hirshfeld dipole vector :     -0.06323124       0.09005981       0.06393245
  |   Hirshfeld dipole moment :      0.12726475
  |   Hirshfeld second moments:      0.09374020       0.00233118      -0.01784223
  |                                  0.00233118       0.09404711      -0.00786090
  |                                 -0.01784223      -0.00786090       0.10831775
  ----------------------------------------------------------------------
  | Atom    10: H
  |   Hirshfeld charge        :      0.08552023
  |   Free atom volume        :     10.44207651
  |   Hirshfeld volume        :      8.65190684
  |   Hirshfeld dipole vector :      0.01941840       0.05115620      -0.03846242
  |   Hirshfeld dipole moment :      0.06688340
  |   Hirshfeld second moments:      0.05704099      -0.01865920       0.00944194
  |                                 -0.01865920       0.07080335       0.01121972
  |                                  0.00944194       0.01121972       0.03704139
  ----------------------------------------------------------------------


------------------------------------------------------------------------------
  Final output of selected total energy values:

  The following output summarizes some interesting total energy values
  at the end of a run (AFTER all relaxation, molecular dynamics, etc.).

  | Total energy of the DFT / Hartree-Fock s.c.f. calculation      :          -6262.379299819 eV
  | Final zero-broadening corrected energy (caution - metals only) :          -6262.382120767 eV
  | For reference only, the value of 1 Hartree used in FHI-aims is :             27.211384500 eV

  Before relying on these values, please be sure to understand exactly which
  total energy value is referred to by a given number. Different objects may
  all carry the same name 'total energy'. Definitions:

  Total energy of the DFT / Hartree-Fock s.c.f. calculation:
  | Note that this energy does not include ANY quantities calculated after the
  | s.c.f. cycle, in particular not ANY RPA, MP2, etc. many-body perturbation terms.

  Final zero-broadening corrected energy:
  | For metallic systems only, a broadening of the occupation numbers at the Fermi
  | level can be extrapolated back to zero broadening by an electron-gas inspired
  | formula. For all systems that are not real metals, this value can be
  | meaningless and should be avoided.

------------------------------------------------------------------------------

------------------------------------------------------------
          Leaving FHI-aims.
          Date     :  20150727, Time     :  130516.987

          Computational steps:
          | Number of self-consistency cycles          :           15

          Detailed time accounting                     :  max(cpu_time)    wall_clock(cpu1)
          | Total time                                 :       15.067 s          15.097 s
          | Preparation time                           :        0.171 s           0.499 s
          | Grid partitioning                          :        0.101 s           0.100 s
          | Preloading free-atom quantities on grid    :        0.013 s           0.014 s
          | Free-atom superposition energy             :        0.034 s           0.034 s
          | Total time for integrations                :        5.510 s           5.516 s
          | Total time for solution of K.-S. equations :        0.349 s           0.349 s
          | Total time for density & force components  :        5.343 s           5.337 s
          | Total time for mixing                      :        0.120 s           0.121 s
          | Total time for Hartree multipole update    :        0.058 s           0.060 s
          | Total time for Hartree multipole sum       :        2.890 s           2.883 s
          | Total time for total energy evaluation     :        0.005 s           0.006 s
          | Total time for scaled ZORA corrections     :        0.000 s           0.000 s
          | Total time for TS (2009) vdW correction    :        0.024 s           0.025 s

          Have a nice day.
------------------------------------------------------------
