  MPI-parallelism will be employed.
------------------------------------------------------------
          Invoking FHI-aims ...
          Version 081213
          Compiled on 2013/08/29 at 17:41:06 on host generoso.

          When using FHI-aims, please cite the following reference:

          Volker Blum, Ralf Gehrke, Felix Hanke, Paula Havu,
          Ville Havu, Xinguo Ren, Karsten Reuter, and Matthias Scheffler,
          'Ab Initio Molecular Simulations with Numeric Atom-Centered Orbitals: FHI-aims',
          Computer Physics Communications 180, 2175-2196 (2009)

          For any questions about FHI-aims, please visit the aimsclub website
          with its forums and wiki. Contributions to both the forums and the
          wiki are warmly encouraged - they are for you, and everyone is welcome there.

------------------------------------------------------------

  Date     :  20150727, Time     :  114409.189
  Time zero on CPU 1             :   0.389930000000000E-01  s.
  Internal wall clock time zero  :           207229449.189  s.

  Using        8 parallel tasks.
  Task        0 on host gen59 reporting.
  Task        1 on host gen59 reporting.
  Task        2 on host gen59 reporting.
  Task        3 on host gen59 reporting.
  Task        4 on host gen59 reporting.
  Task        5 on host gen59 reporting.
  Task        6 on host gen59 reporting.
  Task        7 on host gen59 reporting.

  Performing system and environment tests:
  | Environment variable OMP_NUM_THREADS correctly set to 1.
  | Checking for scalapack...
  | No scalapack compiled in.

  Obtaining array dimensions for all initial allocations:
  
  -----------------------------------------------------------------------
  Parsing control.in (first pass over file, find array dimensions only).
  The contents of control.in will be repeated verbatim below
  unless switched off by setting 'verbatim_writeout .false.' .
  in the first line of control.in .
  -----------------------------------------------------------------------
  
  #########################################################################################
  #
  #  Volker Blum, FHI 2008 : Test run input file control.in
  #
  #########################################################################################
  #
  #  Physical model
  #
    xc                 rpbe
    spin               none
    relativistic       atomic_zora scalar
    charge             0.
   vdw_correction_hirshfeld
  #
  #  SCF convergence
  #
    occupation_type    gaussian 0.01
    mixer              pulay
      n_max_pulay        10
      charge_mix_param   0.1
    sc_accuracy_rho    5E-5
    sc_accuracy_eev    5E-3
    sc_accuracy_etot   5E-6
    sc_iter_limit      3000
  #
  #  Eigenvalue solver
  #
    KS_method          lapack
      empty_states       8
      basis_threshold    0.e-5
  #
  #  Efficiency
  #
  #   all previous settings are now default, except stratmann still
  #   undecided. Continue to handle stratmann with care, if at all.
  #
  #  partition_type stratmann
    partition_type rho_r2
  #  hartree_partition_type stratmann
  #
  #  Oprions for large clusters (100's of atoms: memory saving / better scaling)
  #
  # for periodic systems:
  #
    density_update_method orbital
    packed_matrix_format none
  #  k_grid 6 6 6
  #  output k_eigenvalue 1
  #  distributed_spline_storage .true.
  #
  #  Relaxation
  #
  #  relax_geometry   bfgs 5.e-3
    sc_accuracy_forces 5.E-4
    final_forces_cleaned .true.
  #
  #  Output options
  #
  #  output mulliken
    output Hirshfeld
  #  output dipole
  
  #harmonic_length_scale 0.001
  
  ################################################################################
  #
  #  FHI-aims code project
  #  VB, Fritz-Haber Institut, 2007
  #
  #  Suggested "safe" defaults for H atom (to be pasted into control.in file)
  #  Basis constructed for a non-relativistic H2 molecule using the
  #  PW-LDA functional.
  #
  ################################################################################
    species        H
  #     global species definitions
      nucleus             1
      cut_pot             4.0  2.0  1.0
      cut_free_atom       finite 8.0
      logarithmic         0.00010000 100.00  1.0123
      basis_dep_cutoff    1d-4  # 1d-4 is safe default - please check 5d-4 if you wish!
      radial_base         24 7.0
      radial_multiplier   2
      angular_grids       specified
        division   0.2783  110
        division   0.3822  194
        division   0.5626  302
  #      division   0.5922  434
  #      division   0.6227  590
  #      division   0.7206  770
        outer_grid  302
      l_hartree           4
  ################################################################################
  #
  #  Definition of "minimal" basis
  #
  ################################################################################
  #     valence basis states
      valence      1  s   1.
  #     ion occupancy
      ion_occ      1  s   0.5
  ################################################################################
  #
  #  Suggested additional basis functions. For production calculations,
  #  uncomment them one after another (the most important basis functions are
  #  listed first).
  #
  ################################################################################
  #  "First tier" - improvements: -1014.90 meV to -62.69 meV
       hydro 2 s 2.1
       hydro 2 p 3.5
  #  "Second tier" - improvements: -12.89 meV to -1.83 meV
       hydro 1 s 0.85
       hydro 2 p 3.7
       hydro 2 s 1.2
       hydro 3 d 7
  #  "Third tier" - improvements: -0.25 meV to -0.12 meV
  #     hydro 4 f 11.2
  #     hydro 3 p 4.8
  #     hydro 4 d 9
  #     hydro 3 s 3.2
  
  ################################################################################
  #
  #  FHI-aims code project
  #  VB, Fritz-Haber Institut, 2007
  #
  #  Suggested "safe" defaults for O atom (to be pasted into control.in file)
  #  All values have been tested for a non-relativistic, non-spinpolarized O2
  #  molecule using the PW-LDA functional. Validity for PBE is expected.
  #
  #  Constructed for dimers: 1.0 A, 1.208 A, 1.5 A, 2.0 A, 3.0 A
  #
  ################################################################################
    species        O
  #     global species definitions
      nucleus             8
      mass                15.9994
      l_hartree           4
      cut_pot             4.0  2.0  1.0
      cut_free_atom       finite 8.0
      basis_dep_cutoff    1d-4  # 1d-4 is safe default - please check 5d-4 if you wish!
      logarithmic         0.00010000 100.00  1.0123
      radial_base         36 7.0
      radial_multiplier   2
       angular_grids specified
        division   0.4087  110
        division   0.5181  194
        division   0.6184  302
  #      division   0.7315  434
  #      division   0.7934  590
  #      division   0.9656  770
  #      division   1.4041  974
  #      outer_grid 974
        outer_grid 302
  ################################################################################
  #
  #  Definition of "minimal" basis
  #
  ################################################################################
  #     valence basis states
      valence      2  s   2.
      valence      2  p   4.
  #     ion occupancy
      ion_occ      2  s   1.
      ion_occ      2  p   3.
  ################################################################################
  #
  #  Suggested additional basis functions. For production calculations,
  #  uncomment them one after another (the most important basis functions are
  #  listed first).
  #
  ################################################################################
  #  "First tier" - improvements: -699.05 meV to -159.38 meV
       hydro 2 p 1.8
       hydro 3 d 7.6
       hydro 3 s 6.4
  #  "Second tier" - improvements: -49.91 meV to -5.39 meV
       hydro 4 f 11.6
       hydro 3 p 6.2
       hydro 3 d 5.6
       hydro 5 g 17.6
       hydro 1 s 0.75
  #  "Third tier" - improvements: -2.83 meV to -0.50 meV
  #     ionic 2 p auto
  #     hydro 4 f 10.8
  #     hydro 4 d 4.7
  #     hydro 2 s 6.8
  #  "Fourth tier" - improvements: -0.40 meV to -0.12 meV
  #     hydro 3 p 5
  #     hydro 3 s 3.3
  #     hydro 5 g 15.6
  #     hydro 4 f 17.6
  #     hydro 4 d 14
  # Further basis functions - -0.08 meV and below
  #     hydro 3 s 2.1
  #     hydro 4 d 11.6
  #     hydro 3 p 16
  #     hydro 2 s 17.2
  
  
  -----------------------------------------------------------------------
  Completed first pass over input file control.in .
  -----------------------------------------------------------------------
  
  
  -----------------------------------------------------------------------
  Parsing geometry.in (first pass over file, find array dimensions only).
  The contents of geometry.in will be repeated verbatim below
  unless switched off by setting 'verbatim_writeout .false.' .
  in the first line of geometry.in .
  -----------------------------------------------------------------------
  
  atom      -4.053030000      0.065001000     -1.525160000  O
  atom      -4.566710000      0.974813000     -1.912820000  H
  atom      -3.067820000      0.330172000     -1.477310000  H
  atom      -4.370360000     -0.049164000     -0.572274000  H
  atom      -4.581760000     -0.256435000      0.939478000  O
  atom      -4.349860000      0.471090000      1.504340000  H
  atom      -5.393870000     -0.726611000      1.228070000  H
  atom      -5.293160000      2.192130000     -2.328800000  O
  atom      -4.829300000      2.988660000     -1.973850000  H
  atom      -5.428570000      2.328640000     -3.235170000  H
  atom      -1.645860000      0.870179000     -1.502250000  O
  atom      -1.568890000      1.501730000     -0.721051000  H
  atom      -0.824432000      0.282220000     -1.377720000  H
  atom      -3.818880000      2.024990000      2.187990000  O
  atom      -3.690880000      1.961360000      3.202150000  H
  atom      -4.546490000      2.751300000      2.045370000  H
  atom      -1.975360000      2.858040000      0.453140000  O
  atom      -1.223550000      3.375850000      0.786238000  H
  atom      -2.537520000      2.567960000      1.156120000  H
  atom      -5.628340000      3.730740000      1.385610000  O
  atom      -6.090650000      4.418470000      1.860350000  H
  atom      -5.158540000      4.200260000      0.615875000  H
  
  -----------------------------------------------------------------------
  Completed first pass over input file geometry.in .
  -----------------------------------------------------------------------
  
 
  Basic array size parameters: 
  | Number of species                 :        2
  | Number of atoms                   :       22
  | Max. basis fn. angular momentum   :        4
  | Max. atomic/ionic basis occupied n:        2
  | Max. number of basis fn. types    :        2
  | Max. radial fns per species/type  :        8
  | Max. logarithmic grid size        :     1301
  | Max. radial integration grid size :       73
  | Max. angular integration grid size:      302
  | Max. angular grid division number :        8
  | Radial grid for Hartree potential :     1301
  | Number of spin channels           :        1

------------------------------------------------------------
          Reading file control.in.
------------------------------------------------------------
  XC: Using RPBE gradient-corrected functionals.
  Spin treatment: No spin polarisation.
  Scalar relativistic treatment of kinetic energy: on-site free-atom approximation to ZORA.
  Charge =   0.000000E+00: Neutral system requested explicitly.
  Using non-empirical van der Waals correction (Hirshfeld partitioning):
  Occupation type: Gaussian broadening, width =   0.100000E-01 eV.
  Using pulay charge density mixing.
  Pulay mixing - number of memorized iterations:   10
  Charge density mixing - mixing parameter:     0.1000
  Convergence accuracy of self-consistent charge density: 0.5000E-04
  Convergence accuracy of sum of eigenvalues: 0.5000E-02
  Convergence accuracy of total energy: 0.5000E-05
  Maximum number of s.-c. iterations  :  3000
  Kohn-Sham eigenvalues and eigenfunctions calculated by lapack diagonalisation (D&C).
  Number of empty states per atom:        8
  Threshold for basis singularities: 0.0000E+00
  Partition function in integrals calculations: rho / r^2
 Using packed matrix format           0
  Convergence accuracy of forces: 0.5000E-03
  Cleaning forces before final output.
  Hirshfeld charge analysis will be performed.
 
  Reading configuration options for species H                   .
  | Found nuclear charge :   1.0000
  | Found cutoff potl. onset [A], width [A], scale factor :    4.00000    2.00000    1.00000
  | Found cutoff specification for free atom: Cutoff potential begins at    8.00000 A.
  | Found logarithmic grid data [bohr] : 0.1000E-03 0.1000E+03 0.1012E+01
  | Threshold for basis-dependent cutoff potential is   0.100000E-03
  | Found data for basic radial integration grid :    24 points, outermost radius =    7.000 A
  | Found multiplier for basic radial grid :   2
  | Found angular grid specification: user-specified.
  | Specified grid contains     4 separate shells.
  | Check grid settings after all constraints further below.
  | Found l_max for Hartree potential  :   4
  | Found free-atom valence shell :  1 s   1.000
  | No ionic wave fns used. Skipping ion_occ.
  | Found hydrogenic basis function :  2 s   2.100
  | Found hydrogenic basis function :  2 p   3.500
  | Found hydrogenic basis function :  1 s   0.850
  | Found hydrogenic basis function :  2 p   3.700
  | Found hydrogenic basis function :  2 s   1.200
  | Found hydrogenic basis function :  3 d   7.000
  Species H                   : Missing cutoff potential type.
  Defaulting to exp(1/x)/(1-x)^2 type cutoff potential.
  Species H : On-site basis accuracy parameter (for Gram-Schmidt orthonormalisation) not specified.
  Using default value basis_acc =  0.1000000E-03.
  Species H                   : Using default innermost maximum threshold i_radial=  2 for radial functions.
  Species H                   : Basic radial grid will be enhanced according to radial_multiplier =   2, to contain    49 grid points.
 
  Reading configuration options for species O                   .
  | Found nuclear charge :   8.0000
  | Found atomic mass :    15.9994000000000      amu
  | Found l_max for Hartree potential  :   4
  | Found cutoff potl. onset [A], width [A], scale factor :    4.00000    2.00000    1.00000
  | Found cutoff specification for free atom: Cutoff potential begins at    8.00000 A.
  | Threshold for basis-dependent cutoff potential is   0.100000E-03
  | Found logarithmic grid data [bohr] : 0.1000E-03 0.1000E+03 0.1012E+01
  | Found data for basic radial integration grid :    36 points, outermost radius =    7.000 A
  | Found multiplier for basic radial grid :   2
  | Found angular grid specification: user-specified.
  | Specified grid contains     4 separate shells.
  | Check grid settings after all constraints further below.
  | Found free-atom valence shell :  2 s   2.000
  | Found free-atom valence shell :  2 p   4.000
  | No ionic wave fns used. Skipping ion_occ.
  | No ionic wave fns used. Skipping ion_occ.
  | Found hydrogenic basis function :  2 p   1.800
  | Found hydrogenic basis function :  3 d   7.600
  | Found hydrogenic basis function :  3 s   6.400
  | Found hydrogenic basis function :  4 f  11.600
  | Found hydrogenic basis function :  3 p   6.200
  | Found hydrogenic basis function :  3 d   5.600
  | Found hydrogenic basis function :  5 g  17.600
  | Found hydrogenic basis function :  1 s   0.750
  Species O                   : Missing cutoff potential type.
  Defaulting to exp(1/x)/(1-x)^2 type cutoff potential.
  Species O : On-site basis accuracy parameter (for Gram-Schmidt orthonormalisation) not specified.
  Using default value basis_acc =  0.1000000E-03.
  Species O                   : Using default innermost maximum threshold i_radial=  2 for radial functions.
  Species O                   : Basic radial grid will be enhanced according to radial_multiplier =   2, to contain    73 grid points.
 
  Finished reading input file 'control.in'. Consistency checks are next.
 
  Target number of points in a grid batch is not set. Defaulting to  100
  Method for grid partitioning is not set. Defaulting to parallel hash+maxmin partitioning.
  Batch size limit is not set. Defaulting to    200
  By default, will store active basis functions for each batch.
  If in need of memory, prune_basis_once .false. can be used to disable this option.
  communication_type for Hartree potential was not specified.
  Defaulting to calc_hartree .
  Pulay mixer: Number of initial linear mixing iterations not set.
  Defaulting to    0 iterations.
  Work space size for distributed Hartree potential not set.
  Defaulting to   0.200000E+03 MB.
  Algorithm-dependent basis array size parameters:
  | n_max_pulay                         :       10
  Geometry relaxation not requested: no relaxation will be performed.
  Handling of forces: Unphysical translation and rotation will be removed from forces.
  No accuracy limit for integral partition fn. given. Defaulting to 0.1000E-14.
  No threshold value for u(r) in integrations given. Defaulting to 0.1000E-05.
  No accuracy for occupation numbers given. Defaulting to 0.1000E-07.
  No threshold value for occupation numbers given. Defaulting to 0.0000E+00.
  No accuracy for fermi level given. Defaulting to 0.1000E-19.
  Maximum # of iterations to find E_F not set. Defaulting to  200.
  Will not use alltoall communication since running on < 1024 CPUs.
  Partitioning for Hartree potential was not defined. Using partition_type for integrals.
  | Reporting present value of keyword multip_moments_threshold  :       0.10000000E-09
  | This value may affect high angular momentum components of the Hartree potential in periodic systems.
  No q(lm)/r^(l+1) cutoff set for long-range Hartree potential.
  | Using default value of  0.100000E-09 .
  | Verify using the multipole_threshold keyword.
  Defaulting to new monopole extrapolation.
  Density update method: Loop over occupied states selected for charge density update.
------------------------------------------------------------


------------------------------------------------------------
          Reading geometry description geometry.in.
------------------------------------------------------------
  Input structure read successfully.
  The structure contains       22 atoms,  and a total of         71.000 electrons.

  Input geometry:
  | No unit cell requested.
  | Atomic structure:
  |       Atom                x [A]            y [A]            z [A]
  |    1: Species O             -4.053030         0.065001        -1.525160
  |    2: Species H             -4.566710         0.974813        -1.912820
  |    3: Species H             -3.067820         0.330172        -1.477310
  |    4: Species H             -4.370360        -0.049164        -0.572274
  |    5: Species O             -4.581760        -0.256435         0.939478
  |    6: Species H             -4.349860         0.471090         1.504340
  |    7: Species H             -5.393870        -0.726611         1.228070
  |    8: Species O             -5.293160         2.192130        -2.328800
  |    9: Species H             -4.829300         2.988660        -1.973850
  |   10: Species H             -5.428570         2.328640        -3.235170
  |   11: Species O             -1.645860         0.870179        -1.502250
  |   12: Species H             -1.568890         1.501730        -0.721051
  |   13: Species H             -0.824432         0.282220        -1.377720
  |   14: Species O             -3.818880         2.024990         2.187990
  |   15: Species H             -3.690880         1.961360         3.202150
  |   16: Species H             -4.546490         2.751300         2.045370
  |   17: Species O             -1.975360         2.858040         0.453140
  |   18: Species H             -1.223550         3.375850         0.786238
  |   19: Species H             -2.537520         2.567960         1.156120
  |   20: Species O             -5.628340         3.730740         1.385610
  |   21: Species H             -6.090650         4.418470         1.860350
  |   22: Species H             -5.158540         4.200260         0.615875
  |

  | The smallest distance between any two atoms is         0.92654057 AA.
  |
  | The first atom of this pair is atom number                      8 .
  | The second atom of this pair is atom number                    10 .

  Structure-dependent array size parameters: 
  | Maximum number of distinct radial functions  :       18
  | Maximum number of basis functions            :      498
  | Number of Kohn-Sham states (occupied + empty):      124
------------------------------------------------------------

------------------------------------------------------------
          Preparing all fixed parts of the calculation.
------------------------------------------------------------
  Determining machine precision:
    2.225073858507201E-308
  Setting up grids for atomic and cluster calculations.

  Creating wave function, potential, and density for free atoms.

  Species: H

  List of occupied orbitals and eigenvalues:
    n    l              occ      energy [Ha]    energy [eV]
    1    0           1.0000        -0.241408        -6.5691


  Species: O

  List of occupied orbitals and eigenvalues:
    n    l              occ      energy [Ha]    energy [eV]
    1    0           2.0000       -18.944147      -515.4965
    2    0           2.0000        -0.883529       -24.0421
    2    1           4.0000        -0.330176        -8.9845

  Creating fixed part of basis set: Ionic, confined, hydrogenic.
 
  H                    hydrogenic:
 
  List of hydrogenic basis orbitals: 
    n    l      effective z      eigenvalue [eV]  inner max. [A]     outer max. [A]     outer radius [A]   
    2    0         2.100000       -14.9965           0.193241           1.317192           5.372934
    2    1         3.500000       -41.6672           0.602363           0.602363           4.056010
    1    0         0.850000        -9.8292           0.624864           0.624864           5.372934
    2    1         3.700000       -46.5653           0.573616           0.573616           3.909951
    2    0         1.200000        -4.5995           0.334977           2.228160           5.505921
    3    2         7.000000       -74.0753           0.680692           0.680692           3.769152
 
 
  O                    hydrogenic:
 
  List of hydrogenic basis orbitals: 
    n    l      effective z      eigenvalue [eV]  inner max. [A]     outer max. [A]     outer radius [A]   
    2    1         1.800000       -11.0118           1.178546           1.178546           5.432516
    3    2         7.600000       -87.3182           0.624117           0.624117           3.541422
    3    0         6.400000       -61.9209           0.061166           1.081887           4.306510
    4    3        11.600000      -114.4238           0.731621           0.731621           3.584982
    3    1         6.200000       -58.1113           0.255677           1.030255           4.306510
    3    2         5.600000       -47.4081           0.847222           0.847222           4.413102
    5    4        17.600000      -168.5799           0.749730           0.749730           3.372413
    1    0         0.750000        -7.6499           0.705275           0.705275           5.366508
 

  Adding cutoff potential to free-atom effective potential.
  Creating atomic-like basis functions for current effective potential.

  Species H                   :

  List of atomic basis orbitals and eigenvalues:
    n    l      energy [Ha]    energy [eV]    outer radius [A]
    1    0        -0.241374        -6.5681       5.372934


  Species O                   :

  List of atomic basis orbitals and eigenvalues:
    n    l      energy [Ha]    energy [eV]    outer radius [A]
    1    0       -18.944147      -515.4965       1.415745
    2    0        -0.883529       -24.0421       5.048305
    2    1        -0.330173        -8.9845       5.301302

  Assembling full basis from fixed parts.
  | Species H :   atomic orbital   1 s accepted.
  | Species H :    hydro orbital   2 s accepted.
  | Species H :    hydro orbital   1 s accepted.
  | Species H :    hydro orbital   2 s accepted.
  | Species H :    hydro orbital   2 p accepted.
  | Species H :    hydro orbital   2 p accepted.
  | Species H :    hydro orbital   3 d accepted.
  | Species O :   atomic orbital   1 s accepted.
  | Species O :    hydro orbital   3 s accepted.
  | Species O :   atomic orbital   2 s accepted.
  | Species O :    hydro orbital   1 s accepted.
  | Species O :    hydro orbital   3 p accepted.
  | Species O :   atomic orbital   2 p accepted.
  | Species O :    hydro orbital   2 p accepted.
  | Species O :    hydro orbital   3 d accepted.
  | Species O :    hydro orbital   3 d accepted.
  | Species O :    hydro orbital   4 f accepted.
  | Species O :    hydro orbital   5 g accepted.
 
  Basis size parameters after reduction:
  | Total number of radial functions:       18
  | Total number of basis functions :      498
 
  Testing on-site integration grid accuracy.
  |  Species  Function  <phi|h_atom|phi> (log., in eV)  <phi|h_atom|phi> (rad., in eV)
           1        1                 -6.5683835025                 -6.5684759159
           1        2                 13.3711789951                 13.3708738703
           1        3                 23.6590910787                 23.6532055418
           1        4                 16.2963827186                 16.1870710655 ***
           1        5                 28.7627214838                 28.7627215090
           1        6                 59.5965249172                 59.5965950857
           1        7                 60.2220506392                 60.2220503827
           2        8               -515.4964576505               -515.4964530710
           2        9                 15.3030791347                 15.3030722972
           2       10                -21.7296094581                -21.7296135470
           2       11                 14.2969371730                 14.2969701621
           2       12                 21.0679693190                 21.0679697493
           2       13                 -2.3833606469                 -2.3833613176
           2       14                 13.7067136422                 13.7066766629
           2       15                 45.8013116808                 45.8013116965
           2       16                 52.2309815402                 52.2309831494
           2       17                 85.4120732416                 85.4120732763
           2       18                142.1019167745                142.1019167817
 * Note: Onsite integrals marked "***" above are less accurate than
 * onsite_accuracy_threshold =    0.03000 eV. Usually, this is harmless.
 * When in doubt, tighten the "radial" and/or "radial_multiplier" flags to check.

  Preparing densities etc. for the partition functions (integrals / Hartree potential).

  Preparations completed.
  max(cpu_time)          :      0.174 s.
  Wall clock time (cpu1) :      0.468 s.
------------------------------------------------------------

------------------------------------------------------------
          Begin self-consistency loop: Initialization.

          Date     :  20150727, Time     :  114409.693
------------------------------------------------------------

  Initializing index lists of integration centers etc. from given atomic structure:
  | Number of centers in hartree potential         :        22
  | Number of centers in hartree multipole         :        22
  | Number of centers in electron density summation:        22
  | Number of centers in basis integrals           :        22
  | Number of centers in integrals                 :        22
  Partitioning the integration grid into batches with parallel hashing+maxmin method.
  | Number of batches:     2843
  | Maximal batch size:     171
  | Minimal batch size:      53
  | Average batch size:     100.945
  | Standard deviation of batch sizes:      29.939

  Integration load balanced across     8 MPI tasks.
  Work distribution over tasks is as follows:
  Task     0 has      35840 integration points.
  Task     1 has      35940 integration points.
  Task     2 has      35802 integration points.
  Task     3 has      35839 integration points.
  Task     4 has      35876 integration points.
  Task     5 has      35907 integration points.
  Task     6 has      35876 integration points.
  Task     7 has      35908 integration points.
  Initializing partition tables, free-atom densities, potentials, etc. across the integration grid (initialize_grid_storage).
  | Net number of integration points:   286988
  | of which are non-zero points    :   286399
  Obtaining max. number of non-zero basis functions in each batch (get_n_compute_maxes).
  | Maximal number of non-zero basis functions:      492 in task     0
  | Maximal number of non-zero basis functions:      492 in task     1
  | Maximal number of non-zero basis functions:      492 in task     2
  | Maximal number of non-zero basis functions:      492 in task     3
  | Maximal number of non-zero basis functions:      493 in task     4
  | Maximal number of non-zero basis functions:      493 in task     5
  | Maximal number of non-zero basis functions:      493 in task     6
  | Maximal number of non-zero basis functions:      491 in task     7
  Integrating Hamiltonian matrix: batch-based integration.
  Time summed over all CPUs for integration: real work       17.043 s, elapsed       17.219 s
  Integrating overlap matrix.
  Time summed over all CPUs for integration: real work        9.397 s, elapsed        9.594 s

  Updating Kohn-Sham eigenvalues, eigenvectors, occupation numbers, and Fermi level.
  Solving generalized eigenproblem
  Updating Kohn-Sham eigenvalues and eigenfunctions.
  Transforming overlap matrix and checking for singularities.
  Overlap matrix is nonsingular:
  | Lowest eigenvalue:  0.152732E-03
  Solving real generalised eigenvalue problem by standard LAPACK (fast)
  Determining occupation numbers for Kohn-Sham eigenstates.
  | Chemical potential (Fermi level) in eV                 : -.27874983E+01
  | Error in electron count due to remaining E_F inaccuracy: 0.00000000E+00
  | Maximum occupation number of highest empty state:  0.00E+00

  Writing Kohn-Sham eigenvalues.

  State    Occupation    Eigenvalue [Ha]    Eigenvalue [eV]
      1       2.00000         -19.065402         -518.79598
      2       2.00000         -19.064866         -518.78139
      3       2.00000         -19.059294         -518.62978
      4       2.00000         -19.057408         -518.57845
      5       2.00000         -19.050557         -518.39202
      6       2.00000         -19.042584         -518.17507
      7       2.00000         -19.036181         -518.00084
      8       2.00000          -1.132057          -30.80483
      9       2.00000          -1.117412          -30.40634
     10       2.00000          -1.109901          -30.20195
     11       2.00000          -1.105591          -30.08467
     12       2.00000          -1.099031          -29.90614
     13       2.00000          -1.081552          -29.43052
     14       2.00000          -1.068339          -29.07099
     15       2.00000          -0.656106          -17.85355
     16       2.00000          -0.653992          -17.79603
     17       2.00000          -0.651050          -17.71597
     18       2.00000          -0.648084          -17.63526
     19       2.00000          -0.629208          -17.12161
     20       2.00000          -0.626662          -17.05235
     21       2.00000          -0.607846          -16.54034
     22       2.00000          -0.605125          -16.46629
     23       2.00000          -0.543892          -14.80006
     24       2.00000          -0.526424          -14.32471
     25       2.00000          -0.514678          -14.00509
     26       2.00000          -0.508099          -13.82608
     27       2.00000          -0.501920          -13.65794
     28       2.00000          -0.490907          -13.35825
     29       2.00000          -0.482332          -13.12491
     30       2.00000          -0.452784          -12.32088
     31       2.00000          -0.446847          -12.15933
     32       2.00000          -0.443981          -12.08134
     33       2.00000          -0.440000          -11.97300
     34       2.00000          -0.435756          -11.85751
     35       2.00000          -0.431704          -11.74725
     36       1.00000          -0.102439           -2.78750
     37       0.00000          -0.071781           -1.95326
     38       0.00000          -0.069364           -1.88749
     39       0.00000          -0.058033           -1.57915
     40       0.00000          -0.043368           -1.18010
     41       0.00000          -0.034049           -0.92653
     42       0.00000          -0.013048           -0.35507
     43       0.00000           0.006879            0.18718
     44       0.00000           0.021047            0.57271
     45       0.00000           0.029365            0.79907
     46       0.00000           0.040182            1.09340
     47       0.00000           0.045675            1.24288
     48       0.00000           0.052108            1.41794
     49       0.00000           0.055209            1.50231
     50       0.00000           0.065174            1.77348
     51       0.00000           0.072851            1.98236
     52       0.00000           0.081056            2.20564
     53       0.00000           0.083337            2.26771
     54       0.00000           0.092308            2.51183
     55       0.00000           0.096685            2.63094
     56       0.00000           0.105300            2.86535
     57       0.00000           0.107156            2.91585
     58       0.00000           0.111499            3.03405
     59       0.00000           0.119461            3.25069
     60       0.00000           0.121140            3.29639
     61       0.00000           0.129699            3.52930
     62       0.00000           0.135772            3.69453
     63       0.00000           0.141733            3.85674
     64       0.00000           0.145907            3.97034
     65       0.00000           0.151095            4.11150
     66       0.00000           0.157702            4.29128
     67       0.00000           0.160748            4.37417
     68       0.00000           0.168876            4.59535
     69       0.00000           0.182607            4.96898
     70       0.00000           0.187787            5.10995
     71       0.00000           0.199183            5.42004
     72       0.00000           0.200203            5.44779
     73       0.00000           0.221292            6.02166
     74       0.00000           0.231251            6.29266
     75       0.00000           0.240270            6.53809
     76       0.00000           0.244209            6.64528
     77       0.00000           0.261663            7.12022
     78       0.00000           0.273051            7.43011
     79       0.00000           0.283307            7.70918
     80       0.00000           0.300345            8.17279
     81       0.00000           0.304131            8.27583
     82       0.00000           0.305639            8.31687
     83       0.00000           0.315790            8.59307
     84       0.00000           0.335951            9.14170
     85       0.00000           0.339399            9.23551
     86       0.00000           0.346201            9.42060
     87       0.00000           0.352214            9.58424
     88       0.00000           0.368872           10.03751
     89       0.00000           0.374091           10.17954
     90       0.00000           0.389019           10.58575
     91       0.00000           0.393884           10.71813
     92       0.00000           0.399757           10.87793
     93       0.00000           0.407740           11.09517
     94       0.00000           0.413994           11.26536
     95       0.00000           0.428267           11.65375
     96       0.00000           0.436995           11.89124
     97       0.00000           0.446757           12.15688
     98       0.00000           0.456416           12.41971
     99       0.00000           0.465841           12.67617
    100       0.00000           0.474436           12.91006
    101       0.00000           0.490338           13.34278
    102       0.00000           0.498462           13.56383
    103       0.00000           0.505023           13.74238
    104       0.00000           0.514905           14.01128
    105       0.00000           0.519926           14.14790
    106       0.00000           0.548200           14.91728
    107       0.00000           0.563297           15.32808
    108       0.00000           0.574467           15.63205
    109       0.00000           0.592324           16.11795
    110       0.00000           0.606742           16.51030
    111       0.00000           0.608282           16.55219
    112       0.00000           0.631427           17.18200
    113       0.00000           0.639078           17.39020
    114       0.00000           0.661988           18.01361
    115       0.00000           0.681868           18.55457
    116       0.00000           0.727603           19.79909
    117       0.00000           0.754198           20.52276
    118       0.00000           0.758429           20.63791
    119       0.00000           0.761955           20.73384
    120       0.00000           0.775635           21.10611
    121       0.00000           0.782445           21.29141
    122       0.00000           0.797835           21.71018
    123       0.00000           0.801164           21.80078
    124       0.00000           0.824317           22.43080

  Highest occupied state (VBM) at     -2.78749834 eV
  | Occupation number:      1.00000000

  Lowest unoccupied state (CBM) at    -2.78749834 eV
  | Occupation number:      1.00000000

  Overall HOMO-LUMO gap:      0.00000000 eV.
  Calculating total energy contributions from superposition of free atom densities.

  Total energy components:
  | Sum of eigenvalues            :        -304.87757713 Ha       -8296.14097665 eV
  | XC energy correction          :         -64.26104326 Ha       -1748.63195664 eV
  | XC potential correction       :          82.14283107 Ha        2235.22016009 eV
  | Free-atom electrostatic energy:        -249.78352435 Ha       -6796.95552285 eV
  | Hartree energy correction     :           0.00000000 Ha           0.00000000 eV
  | van der Waals energy corr.    :           0.00000000 Ha           0.00000000 eV
  | Entropy correction            :          -0.00010367 Ha          -0.00282095 eV
  | ---------------------------
  | Total energy                  :        -536.77931367 Ha      -14606.50829605 eV
  | Total energy, T -> 0          :        -536.77941734 Ha      -14606.51111700 eV  <-- do not rely on this value for anything but (periodic) metals
  | Electronic free energy        :        -536.77952101 Ha      -14606.51393795 eV

  Derived energy quantities:
  | Kinetic energy                :         531.70674484 Ha       14468.47667500 eV
  | Electrostatic energy          :       -1004.22501525 Ha      -27326.35301441 eV
  | Energy correction for multipole
  | error in Hartree potential    :           0.00000000 Ha           0.00000000 eV
  | Sum of eigenvalues per atom                           :        -377.09731712 eV
  | Total energy (T->0) per atom                          :        -663.93232350 eV  <-- do not rely on this value for anything but (periodic) metals
  | Electronic free energy per atom                       :        -663.93245172 eV
  Initialize hartree_potential_storage
  Max. number of atoms included in rho_multipole:           22

  End scf initialization - timings             :  max(cpu_time)    wall_clock(cpu1)
  | Time for scf. initialization               :        4.521 s           4.510 s
  | Boundary condition initialization          :        0.000 s           0.000 s
  | Integration                                :        3.359 s           3.359 s
  | Solution of K.-S. eqns.                    :        0.486 s           0.486 s
  | Grid partitioning                          :        0.239 s           0.239 s
  | Preloading free-atom quantities on grid    :        0.014 s           0.014 s
  | Free-atom superposition energy             :        0.126 s           0.125 s
  | Total energy evaluation                    :        0.000 s           0.001 s
------------------------------------------------------------

------------------------------------------------------------
          Begin self-consistency iteration #    1

  Date     :  20150727, Time     :  114414.203
------------------------------------------------------------
  Evaluating new KS density.
  Integration grid: deviation in total charge (<rho> - N_e) =   2.842171E-14
  Pulay mixing of updated and previous charge densities.

  Evaluating partitioned Hartree potential by multipole expansion.
  | Analytical far-field extrapolation by fixed multipoles:
  | Hartree multipole sum: apparent total charge =  -0.210863E-05
  Summing up the Hartree potential.
  Time summed over all CPUs for potential: real work        5.434 s, elapsed        5.456 s
  | RMS charge density error from multipole expansion :   0.199790E-02

  Integrating Hamiltonian matrix: batch-based integration.
  Time summed over all CPUs for integration: real work       17.021 s, elapsed       17.201 s

  Updating Kohn-Sham eigenvalues, eigenvectors, occupation numbers, and Fermi level.
  Solving generalized eigenproblem
  Updating Kohn-Sham eigenvalues and eigenfunctions.
  Solving real generalised eigenvalue problem by standard LAPACK (fast)
  Determining occupation numbers for Kohn-Sham eigenstates.
  | Chemical potential (Fermi level) in eV                 : -.25139048E+01
  | Error in electron count due to remaining E_F inaccuracy: 0.00000000E+00
  | Maximum occupation number of highest empty state:  0.00E+00

  Writing Kohn-Sham eigenvalues.

  State    Occupation    Eigenvalue [Ha]    Eigenvalue [eV]
      1       2.00000         -19.003959         -517.12402
      2       2.00000         -18.995287         -516.88807
      3       2.00000         -18.983296         -516.56176
      4       2.00000         -18.975928         -516.36126
      5       2.00000         -18.974757         -516.32941
      6       2.00000         -18.972960         -516.28051
      7       2.00000         -18.963855         -516.03276
      8       2.00000          -1.099990          -29.93224
      9       2.00000          -1.083545          -29.48475
     10       2.00000          -1.068799          -29.08350
     11       2.00000          -1.067451          -29.04681
     12       2.00000          -1.061369          -28.88133
     13       2.00000          -1.046173          -28.46783
     14       2.00000          -1.030379          -28.03803
     15       2.00000          -0.623264          -16.95988
     16       2.00000          -0.621982          -16.92499
     17       2.00000          -0.618879          -16.84055
     18       2.00000          -0.617015          -16.78983
     19       2.00000          -0.599410          -16.31078
     20       2.00000          -0.596718          -16.23752
     21       2.00000          -0.577292          -15.70893
     22       2.00000          -0.572733          -15.58487
     23       2.00000          -0.510911          -13.90259
     24       2.00000          -0.490005          -13.33371
     25       2.00000          -0.478955          -13.03303
     26       2.00000          -0.471541          -12.83128
     27       2.00000          -0.463078          -12.60099
     28       2.00000          -0.454055          -12.35548
     29       2.00000          -0.446847          -12.15932
     30       2.00000          -0.417896          -11.37153
     31       2.00000          -0.407659          -11.09296
     32       2.00000          -0.401909          -10.93650
     33       2.00000          -0.400659          -10.90250
     34       2.00000          -0.398146          -10.83411
     35       2.00000          -0.392176          -10.67164
     36       1.00000          -0.092384           -2.51390
     37       0.00000          -0.062652           -1.70484
     38       0.00000          -0.060585           -1.64859
     39       0.00000          -0.049237           -1.33980
     40       0.00000          -0.035358           -0.96214
     41       0.00000          -0.025744           -0.70053
     42       0.00000          -0.005548           -0.15096
     43       0.00000           0.017483            0.47574
     44       0.00000           0.029824            0.81156
     45       0.00000           0.039714            1.08067
     46       0.00000           0.048468            1.31888
     47       0.00000           0.055309            1.50502
     48       0.00000           0.060361            1.64251
     49       0.00000           0.063412            1.72554
     50       0.00000           0.074199            2.01906
     51       0.00000           0.080494            2.19035
     52       0.00000           0.091944            2.50193
     53       0.00000           0.094425            2.56944
     54       0.00000           0.100357            2.73085
     55       0.00000           0.106371            2.89451
     56       0.00000           0.115838            3.15212
     57       0.00000           0.118517            3.22501
     58       0.00000           0.122751            3.34023
     59       0.00000           0.130214            3.54330
     60       0.00000           0.134591            3.66241
     61       0.00000           0.137989            3.75488
     62       0.00000           0.148060            4.02892
     63       0.00000           0.154698            4.20955
     64       0.00000           0.161724            4.40074
     65       0.00000           0.163511            4.44936
     66       0.00000           0.170854            4.64917
     67       0.00000           0.177048            4.81771
     68       0.00000           0.181043            4.92644
     69       0.00000           0.192048            5.22590
     70       0.00000           0.197625            5.37766
     71       0.00000           0.209689            5.70592
     72       0.00000           0.211440            5.75357
     73       0.00000           0.231092            6.28834
     74       0.00000           0.239550            6.51848
     75       0.00000           0.250155            6.80707
     76       0.00000           0.253828            6.90702
     77       0.00000           0.270292            7.35501
     78       0.00000           0.283223            7.70688
     79       0.00000           0.291925            7.94369
     80       0.00000           0.307918            8.37887
     81       0.00000           0.311390            8.47335
     82       0.00000           0.314018            8.54487
     83       0.00000           0.325337            8.85286
     84       0.00000           0.344840            9.38359
     85       0.00000           0.347846            9.46538
     86       0.00000           0.356067            9.68908
     87       0.00000           0.362044            9.85171
     88       0.00000           0.379459           10.32561
     89       0.00000           0.382942           10.42039
     90       0.00000           0.397967           10.82924
     91       0.00000           0.402454           10.95133
     92       0.00000           0.410059           11.15827
     93       0.00000           0.417816           11.36935
     94       0.00000           0.423688           11.52914
     95       0.00000           0.437755           11.91193
     96       0.00000           0.447907           12.18816
     97       0.00000           0.455706           12.40039
     98       0.00000           0.465412           12.66451
     99       0.00000           0.476514           12.96661
    100       0.00000           0.484309           13.17871
    101       0.00000           0.501716           13.65239
    102       0.00000           0.508602           13.83977
    103       0.00000           0.515377           14.02412
    104       0.00000           0.527020           14.34095
    105       0.00000           0.533162           14.50809
    106       0.00000           0.560066           15.24018
    107       0.00000           0.574506           15.63311
    108       0.00000           0.586726           15.96564
    109       0.00000           0.604018           16.43617
    110       0.00000           0.618967           16.84294
    111       0.00000           0.620620           16.88792
    112       0.00000           0.643083           17.49918
    113       0.00000           0.651352           17.72418
    114       0.00000           0.675298           18.37580
    115       0.00000           0.694217           18.89062
    116       0.00000           0.741068           20.16550
    117       0.00000           0.766306           20.85225
    118       0.00000           0.771347           20.98941
    119       0.00000           0.774612           21.07825
    120       0.00000           0.785847           21.38398
    121       0.00000           0.795696           21.65200
    122       0.00000           0.809928           22.03926
    123       0.00000           0.813432           22.13462
    124       0.00000           0.837806           22.79786

  Highest occupied state (VBM) at     -2.51390479 eV
  | Occupation number:      1.00000000

  Lowest unoccupied state (CBM) at    -2.51390479 eV
  | Occupation number:      1.00000000

  Overall HOMO-LUMO gap:      0.00000000 eV.

  Total energy components:
  | Sum of eigenvalues            :        -301.87013892 Ha       -8214.30441917 eV
  | XC energy correction          :         -64.57304940 Ha       -1757.12207551 eV
  | XC potential correction       :          82.54981862 Ha        2246.29485492 eV
  | Free-atom electrostatic energy:        -249.78352435 Ha       -6796.95552285 eV
  | Hartree energy correction     :          -2.93646606 Ha         -79.90530690 eV
  | van der Waals energy corr.    :           0.00000000 Ha           0.00000000 eV
  | Entropy correction            :          -0.00010367 Ha          -0.00282095 eV
  | ---------------------------
  | Total energy                  :        -536.61336010 Ha      -14601.99246951 eV
  | Total energy, T -> 0          :        -536.61346377 Ha      -14601.99529045 eV  <-- do not rely on this value for anything but (periodic) metals
  | Electronic free energy        :        -536.61356744 Ha      -14601.99811140 eV

  Derived energy quantities:
  | Kinetic energy                :         533.60005236 Ha       14519.99619399 eV
  | Electrostatic energy          :       -1005.64036306 Ha      -27364.86658798 eV
  | Energy correction for multipole
  | error in Hartree potential    :           0.00038241 Ha           0.01040590 eV
  | Sum of eigenvalues per atom                           :        -373.37747360 eV
  | Total energy (T->0) per atom                          :        -663.72705866 eV  <-- do not rely on this value for anything but (periodic) metals
  | Electronic free energy per atom                       :        -663.72718688 eV

  Self-consistency convergence accuracy:
  | Change of charge density      : 0.7528E+00
  | Change of sum of eigenvalues  : 0.8184E+02 eV
  | Change of total energy        : 0.4516E+01 eV

  End self-consistency iteration #     1       :  max(cpu_time)    wall_clock(cpu1)
  | Time for this iteration                    :        4.356 s           4.357 s
  | Charge density update                      :        1.378 s           1.378 s
  | Density mixing                             :        0.005 s           0.005 s
  | Hartree multipole update                   :        0.008 s           0.008 s
  | Hartree multipole summation                :        0.683 s           0.683 s
  | Integration                                :        2.154 s           2.154 s
  | Solution of K.-S. eqns.                    :        0.128 s           0.128 s
  | Total energy evaluation                    :        0.001 s           0.001 s
------------------------------------------------------------

------------------------------------------------------------
          Begin self-consistency iteration #    2

  Date     :  20150727, Time     :  114418.560
------------------------------------------------------------
  Evaluating new KS density.
  Integration grid: deviation in total charge (<rho> - N_e) =   4.263256E-14
  Pulay mixing of updated and previous charge densities.

  Evaluating partitioned Hartree potential by multipole expansion.
  | Analytical far-field extrapolation by fixed multipoles:
  | Hartree multipole sum: apparent total charge =  -0.698548E-05
  Summing up the Hartree potential.
  Time summed over all CPUs for potential: real work        5.432 s, elapsed        5.456 s
  | RMS charge density error from multipole expansion :   0.823588E-02

  Integrating Hamiltonian matrix: batch-based integration.
  Time summed over all CPUs for integration: real work       16.998 s, elapsed       17.189 s

  Updating Kohn-Sham eigenvalues, eigenvectors, occupation numbers, and Fermi level.
  Solving generalized eigenproblem
  Updating Kohn-Sham eigenvalues and eigenfunctions.
  Solving real generalised eigenvalue problem by standard LAPACK (fast)
  Determining occupation numbers for Kohn-Sham eigenstates.
  | Chemical potential (Fermi level) in eV                 : -.18678512E+01
  | Error in electron count due to remaining E_F inaccuracy: -.44337867E-11
  | Maximum occupation number of highest empty state:  0.00E+00

  Highest occupied state (VBM) at     -7.91957488 eV
  | Occupation number:      2.00000000

  Lowest unoccupied state (CBM) at    -1.86785124 eV
  | Occupation number:      1.00000000

  Overall HOMO-LUMO gap:      6.05172364 eV.

  Total energy components:
  | Sum of eigenvalues            :        -294.44814440 Ha       -8012.34167261 eV
  | XC energy correction          :         -65.38252080 Ha       -1779.14891307 eV
  | XC potential correction       :          83.60352501 Ha        2274.96766467 eV
  | Free-atom electrostatic energy:        -249.78352435 Ha       -6796.95552285 eV
  | Hartree energy correction     :         -10.41129213 Ha        -283.30567318 eV
  | van der Waals energy corr.    :           0.00000000 Ha           0.00000000 eV
  | Entropy correction            :          -0.00010367 Ha          -0.00282095 eV
  | ---------------------------
  | Total energy                  :        -536.42195666 Ha      -14596.78411705 eV
  | Total energy, T -> 0          :        -536.42206033 Ha      -14596.78693799 eV  <-- do not rely on this value for anything but (periodic) metals
  | Electronic free energy        :        -536.42216400 Ha      -14596.78975894 eV

  Derived energy quantities:
  | Kinetic energy                :         537.66144076 Ha       14630.51219524 eV
  | Electrostatic energy          :       -1008.70087662 Ha      -27448.14739921 eV
  | Energy correction for multipole
  | error in Hartree potential    :           0.00010177 Ha           0.00276929 eV
  | Sum of eigenvalues per atom                           :        -364.19734875 eV
  | Total energy (T->0) per atom                          :        -663.49031536 eV  <-- do not rely on this value for anything but (periodic) metals
  | Electronic free energy per atom                       :        -663.49044359 eV

  Self-consistency convergence accuracy:
  | Change of charge density      : 0.5734E+00
  | Change of sum of eigenvalues  : 0.2020E+03 eV
  | Change of total energy        : 0.5208E+01 eV

  End self-consistency iteration #     2       :  max(cpu_time)    wall_clock(cpu1)
  | Time for this iteration                    :        4.353 s           4.353 s
  | Charge density update                      :        1.376 s           1.375 s
  | Density mixing                             :        0.008 s           0.008 s
  | Hartree multipole update                   :        0.007 s           0.007 s
  | Hartree multipole summation                :        0.683 s           0.683 s
  | Integration                                :        2.153 s           2.152 s
  | Solution of K.-S. eqns.                    :        0.127 s           0.127 s
  | Total energy evaluation                    :        0.000 s           0.000 s
------------------------------------------------------------

------------------------------------------------------------
          Begin self-consistency iteration #    3

  Date     :  20150727, Time     :  114422.914
------------------------------------------------------------
  Evaluating new KS density.
  Integration grid: deviation in total charge (<rho> - N_e) =  -4.376943E-12
  Pulay mixing of updated and previous charge densities.

  Evaluating partitioned Hartree potential by multipole expansion.
  | Analytical far-field extrapolation by fixed multipoles:
  | Hartree multipole sum: apparent total charge =  -0.803551E-05
  Summing up the Hartree potential.
  Time summed over all CPUs for potential: real work        5.432 s, elapsed        5.458 s
  | RMS charge density error from multipole expansion :   0.168856E-01

  Integrating Hamiltonian matrix: batch-based integration.
  Time summed over all CPUs for integration: real work       17.000 s, elapsed       17.203 s

  Updating Kohn-Sham eigenvalues, eigenvectors, occupation numbers, and Fermi level.
  Solving generalized eigenproblem
  Updating Kohn-Sham eigenvalues and eigenfunctions.
  Solving real generalised eigenvalue problem by standard LAPACK (fast)
  Determining occupation numbers for Kohn-Sham eigenstates.
  | Chemical potential (Fermi level) in eV                 : -.17803977E+01
  | Error in electron count due to remaining E_F inaccuracy: 0.22168933E-11
  | Maximum occupation number of highest empty state:  0.00E+00

  Highest occupied state (VBM) at     -1.78039774 eV
  | Occupation number:      1.00000000

  Lowest unoccupied state (CBM) at    -1.06914028 eV
  | Occupation number:      0.00000000

  Overall HOMO-LUMO gap:      0.71125746 eV.

  Total energy components:
  | Sum of eigenvalues            :        -294.76301915 Ha       -8020.90985035 eV
  | XC energy correction          :         -65.39454536 Ha       -1779.47611794 eV
  | XC potential correction       :          83.60701664 Ha        2275.06267676 eV
  | Free-atom electrostatic energy:        -249.78352435 Ha       -6796.95552285 eV
  | Hartree energy correction     :         -10.08624191 Ha        -274.46060665 eV
  | van der Waals energy corr.    :           0.00000000 Ha           0.00000000 eV
  | Entropy correction            :          -0.00010367 Ha          -0.00282095 eV
  | ---------------------------
  | Total energy                  :        -536.42031412 Ha      -14596.73942103 eV
  | Total energy, T -> 0          :        -536.42041778 Ha      -14596.74224198 eV  <-- do not rely on this value for anything but (periodic) metals
  | Electronic free energy        :        -536.42052145 Ha      -14596.74506293 eV

  Derived energy quantities:
  | Kinetic energy                :         535.12899847 Ha       14561.60093445 eV
  | Electrostatic energy          :       -1006.15476723 Ha      -27378.86423754 eV
  | Energy correction for multipole
  | error in Hartree potential    :          -0.00755918 Ha          -0.20569588 eV
  | Sum of eigenvalues per atom                           :        -364.58681138 eV
  | Total energy (T->0) per atom                          :        -663.48828373 eV  <-- do not rely on this value for anything but (periodic) metals
  | Electronic free energy per atom                       :        -663.48841195 eV

  Self-consistency convergence accuracy:
  | Change of charge density      : 0.2719E+00
  | Change of sum of eigenvalues  : -.8568E+01 eV
  | Change of total energy        : 0.4470E-01 eV

  End self-consistency iteration #     3       :  max(cpu_time)    wall_clock(cpu1)
  | Time for this iteration                    :        4.349 s           4.350 s
  | Charge density update                      :        1.367 s           1.367 s
  | Density mixing                             :        0.011 s           0.010 s
  | Hartree multipole update                   :        0.007 s           0.007 s
  | Hartree multipole summation                :        0.683 s           0.683 s
  | Integration                                :        2.155 s           2.154 s
  | Solution of K.-S. eqns.                    :        0.127 s           0.127 s
  | Total energy evaluation                    :        0.000 s           0.000 s
------------------------------------------------------------

------------------------------------------------------------
          Begin self-consistency iteration #    4

  Date     :  20150727, Time     :  114427.264
------------------------------------------------------------
  Evaluating new KS density.
  Integration grid: deviation in total charge (<rho> - N_e) =   2.245315E-12
  Pulay mixing of updated and previous charge densities.

  Evaluating partitioned Hartree potential by multipole expansion.
  | Analytical far-field extrapolation by fixed multipoles:
  | Hartree multipole sum: apparent total charge =  -0.938296E-05
  Summing up the Hartree potential.
  Time summed over all CPUs for potential: real work        5.431 s, elapsed        5.456 s
  | RMS charge density error from multipole expansion :   0.206747E-01

  Integrating Hamiltonian matrix: batch-based integration.
  Time summed over all CPUs for integration: real work       16.997 s, elapsed       17.197 s

  Updating Kohn-Sham eigenvalues, eigenvectors, occupation numbers, and Fermi level.
  Solving generalized eigenproblem
  Updating Kohn-Sham eigenvalues and eigenfunctions.
  Solving real generalised eigenvalue problem by standard LAPACK (fast)
  Determining occupation numbers for Kohn-Sham eigenstates.
  | Chemical potential (Fermi level) in eV                 : -.16444194E+01
  | Error in electron count due to remaining E_F inaccuracy: 0.45332769E-08
  | Maximum occupation number of highest empty state:  0.00E+00

  Highest occupied state (VBM) at     -1.64441941 eV
  | Occupation number:      1.00000000

  Lowest unoccupied state (CBM) at    -0.95173930 eV
  | Occupation number:      0.00000000

  Overall HOMO-LUMO gap:      0.69268011 eV.

  Total energy components:
  | Sum of eigenvalues            :        -293.28045099 Ha       -7980.56711833 eV
  | XC energy correction          :         -65.58792785 Ha       -1784.73832337 eV
  | XC potential correction       :          83.85567325 Ha        2281.82896729 eV
  | Free-atom electrostatic energy:        -249.78352435 Ha       -6796.95552285 eV
  | Hartree energy correction     :         -11.61788285 Ha        -316.13867726 eV
  | van der Waals energy corr.    :           0.00000000 Ha           0.00000000 eV
  | Entropy correction            :          -0.00010367 Ha          -0.00282095 eV
  | ---------------------------
  | Total energy                  :        -536.41411280 Ha      -14596.57067452 eV
  | Total energy, T -> 0          :        -536.41421646 Ha      -14596.57349547 eV  <-- do not rely on this value for anything but (periodic) metals
  | Electronic free energy        :        -536.41432013 Ha      -14596.57631641 eV

  Derived energy quantities:
  | Kinetic energy                :         535.25089825 Ha       14564.91799631 eV
  | Electrostatic energy          :       -1006.07708319 Ha      -27376.75034746 eV
  | Energy correction for multipole
  | error in Hartree potential    :          -0.00995081 Ha          -0.27077524 eV
  | Sum of eigenvalues per atom                           :        -362.75305083 eV
  | Total energy (T->0) per atom                          :        -663.48061343 eV  <-- do not rely on this value for anything but (periodic) metals
  | Electronic free energy per atom                       :        -663.48074166 eV

  Self-consistency convergence accuracy:
  | Change of charge density      : 0.1182E+00
  | Change of sum of eigenvalues  : 0.4034E+02 eV
  | Change of total energy        : 0.1687E+00 eV

  End self-consistency iteration #     4       :  max(cpu_time)    wall_clock(cpu1)
  | Time for this iteration                    :        4.353 s           4.353 s
  | Charge density update                      :        1.370 s           1.369 s
  | Density mixing                             :        0.012 s           0.012 s
  | Hartree multipole update                   :        0.007 s           0.007 s
  | Hartree multipole summation                :        0.683 s           0.683 s
  | Integration                                :        2.154 s           2.154 s
  | Solution of K.-S. eqns.                    :        0.127 s           0.127 s
  | Total energy evaluation                    :        0.000 s           0.001 s
------------------------------------------------------------

------------------------------------------------------------
          Begin self-consistency iteration #    5

  Date     :  20150727, Time     :  114431.617
------------------------------------------------------------
  Evaluating new KS density.
  Integration grid: deviation in total charge (<rho> - N_e) =   4.533334E-09
  Pulay mixing of updated and previous charge densities.

  Evaluating partitioned Hartree potential by multipole expansion.
  | Analytical far-field extrapolation by fixed multipoles:
  | Hartree multipole sum: apparent total charge =  -0.965835E-05
  Summing up the Hartree potential.
  Time summed over all CPUs for potential: real work        5.431 s, elapsed        5.455 s
  | RMS charge density error from multipole expansion :   0.212962E-01

  Integrating Hamiltonian matrix: batch-based integration.
  Time summed over all CPUs for integration: real work       16.996 s, elapsed       17.195 s

  Updating Kohn-Sham eigenvalues, eigenvectors, occupation numbers, and Fermi level.
  Solving generalized eigenproblem
  Updating Kohn-Sham eigenvalues and eigenfunctions.
  Solving real generalised eigenvalue problem by standard LAPACK (fast)
  Determining occupation numbers for Kohn-Sham eigenstates.
  | Chemical potential (Fermi level) in eV                 : -.16483030E+01
  | Error in electron count due to remaining E_F inaccuracy: -.28421709E-13
  | Maximum occupation number of highest empty state:  0.00E+00

  Highest occupied state (VBM) at     -7.11597511 eV
  | Occupation number:      2.00000000

  Lowest unoccupied state (CBM) at    -1.64830303 eV
  | Occupation number:      1.00000000

  Overall HOMO-LUMO gap:      5.46767208 eV.

  Total energy components:
  | Sum of eigenvalues            :        -293.18368184 Ha       -7977.93389562 eV
  | XC energy correction          :         -65.60269122 Ha       -1785.14005496 eV
  | XC potential correction       :          83.87401250 Ha        2282.32800367 eV
  | Free-atom electrostatic energy:        -249.78352435 Ha       -6796.95552285 eV
  | Hartree energy correction     :         -11.71791379 Ha        -318.86065758 eV
  | van der Waals energy corr.    :           0.00000000 Ha           0.00000000 eV
  | Entropy correction            :          -0.00010367 Ha          -0.00282095 eV
  | ---------------------------
  | Total energy                  :        -536.41379869 Ha      -14596.56212734 eV
  | Total energy, T -> 0          :        -536.41390236 Ha      -14596.56494829 eV  <-- do not rely on this value for anything but (periodic) metals
  | Electronic free energy        :        -536.41400603 Ha      -14596.56776924 eV

  Derived energy quantities:
  | Kinetic energy                :         535.26043768 Ha       14565.17757746 eV
  | Electrostatic energy          :       -1006.07154516 Ha      -27376.59964984 eV
  | Energy correction for multipole
  | error in Hartree potential    :          -0.01075050 Ha          -0.29253606 eV
  | Sum of eigenvalues per atom                           :        -362.63335889 eV
  | Total energy (T->0) per atom                          :        -663.48022492 eV  <-- do not rely on this value for anything but (periodic) metals
  | Electronic free energy per atom                       :        -663.48035315 eV

  Self-consistency convergence accuracy:
  | Change of charge density      : 0.3136E-01
  | Change of sum of eigenvalues  : 0.2633E+01 eV
  | Change of total energy        : 0.8547E-02 eV

  End self-consistency iteration #     5       :  max(cpu_time)    wall_clock(cpu1)
  | Time for this iteration                    :        4.352 s           4.352 s
  | Charge density update                      :        1.368 s           1.367 s
  | Density mixing                             :        0.014 s           0.015 s
  | Hartree multipole update                   :        0.008 s           0.007 s
  | Hartree multipole summation                :        0.682 s           0.683 s
  | Integration                                :        2.153 s           2.153 s
  | Solution of K.-S. eqns.                    :        0.127 s           0.127 s
  | Total energy evaluation                    :        0.000 s           0.000 s
------------------------------------------------------------

------------------------------------------------------------
          Begin self-consistency iteration #    6

  Date     :  20150727, Time     :  114435.969
------------------------------------------------------------
  Evaluating new KS density.
  Integration grid: deviation in total charge (<rho> - N_e) =   1.421085E-14
  Pulay mixing of updated and previous charge densities.

  Evaluating partitioned Hartree potential by multipole expansion.
  | Analytical far-field extrapolation by fixed multipoles:
  | Hartree multipole sum: apparent total charge =  -0.977335E-05
  Summing up the Hartree potential.
  Time summed over all CPUs for potential: real work        5.431 s, elapsed        5.455 s
  | RMS charge density error from multipole expansion :   0.215901E-01

  Integrating Hamiltonian matrix: batch-based integration.
  Time summed over all CPUs for integration: real work       16.998 s, elapsed       17.157 s

  Updating Kohn-Sham eigenvalues, eigenvectors, occupation numbers, and Fermi level.
  Solving generalized eigenproblem
  Updating Kohn-Sham eigenvalues and eigenfunctions.
  Solving real generalised eigenvalue problem by standard LAPACK (fast)
  Determining occupation numbers for Kohn-Sham eigenstates.
  | Chemical potential (Fermi level) in eV                 : -.16512948E+01
  | Error in electron count due to remaining E_F inaccuracy: -.28421709E-13
  | Maximum occupation number of highest empty state:  0.00E+00

  Highest occupied state (VBM) at     -7.11514544 eV
  | Occupation number:      2.00000000

  Lowest unoccupied state (CBM) at    -1.65129483 eV
  | Occupation number:      1.00000000

  Overall HOMO-LUMO gap:      5.46385060 eV.

  Total energy components:
  | Sum of eigenvalues            :        -293.19099350 Ha       -7978.13285601 eV
  | XC energy correction          :         -65.60501408 Ha       -1785.20326332 eV
  | XC potential correction       :          83.87660670 Ha        2282.39859552 eV
  | Free-atom electrostatic energy:        -249.78352435 Ha       -6796.95552285 eV
  | Hartree energy correction     :         -11.71090835 Ha        -318.67002993 eV
  | van der Waals energy corr.    :           0.00000000 Ha           0.00000000 eV
  | Entropy correction            :          -0.00010367 Ha          -0.00282095 eV
  | ---------------------------
  | Total energy                  :        -536.41383358 Ha      -14596.56307659 eV
  | Total energy, T -> 0          :        -536.41393725 Ha      -14596.56589754 eV  <-- do not rely on this value for anything but (periodic) metals
  | Electronic free energy        :        -536.41404091 Ha      -14596.56871848 eV

  Derived energy quantities:
  | Kinetic energy                :         535.22094921 Ha       14564.10304141 eV
  | Electrostatic energy          :       -1006.02976870 Ha      -27375.46285468 eV
  | Energy correction for multipole
  | error in Hartree potential    :          -0.01112100 Ha          -0.30261794 eV
  | Sum of eigenvalues per atom                           :        -362.64240255 eV
  | Total energy (T->0) per atom                          :        -663.48026807 eV  <-- do not rely on this value for anything but (periodic) metals
  | Electronic free energy per atom                       :        -663.48039629 eV

  Self-consistency convergence accuracy:
  | Change of charge density      : 0.8871E-02
  | Change of sum of eigenvalues  : -.1990E+00 eV
  | Change of total energy        : -.9492E-03 eV

  End self-consistency iteration #     6       :  max(cpu_time)    wall_clock(cpu1)
  | Time for this iteration                    :        4.352 s           4.353 s
  | Charge density update                      :        1.369 s           1.369 s
  | Density mixing                             :        0.016 s           0.016 s
  | Hartree multipole update                   :        0.007 s           0.007 s
  | Hartree multipole summation                :        0.682 s           0.683 s
  | Integration                                :        2.149 s           2.149 s
  | Solution of K.-S. eqns.                    :        0.129 s           0.128 s
  | Total energy evaluation                    :        0.000 s           0.001 s
------------------------------------------------------------

------------------------------------------------------------
          Begin self-consistency iteration #    7

  Date     :  20150727, Time     :  114440.322
------------------------------------------------------------
  Evaluating new KS density.
  Integration grid: deviation in total charge (<rho> - N_e) =   1.421085E-14
  Pulay mixing of updated and previous charge densities.

  Evaluating partitioned Hartree potential by multipole expansion.
  | Analytical far-field extrapolation by fixed multipoles:
  | Hartree multipole sum: apparent total charge =  -0.987338E-05
  Summing up the Hartree potential.
  Time summed over all CPUs for potential: real work        5.431 s, elapsed        5.457 s
  | RMS charge density error from multipole expansion :   0.216545E-01

  Integrating Hamiltonian matrix: batch-based integration.
  Time summed over all CPUs for integration: real work       16.993 s, elapsed       17.164 s

  Updating Kohn-Sham eigenvalues, eigenvectors, occupation numbers, and Fermi level.
  Solving generalized eigenproblem
  Updating Kohn-Sham eigenvalues and eigenfunctions.
  Solving real generalised eigenvalue problem by standard LAPACK (fast)
  Determining occupation numbers for Kohn-Sham eigenstates.
  | Chemical potential (Fermi level) in eV                 : -.16676859E+01
  | Error in electron count due to remaining E_F inaccuracy: 0.12923351E-09
  | Maximum occupation number of highest empty state:  0.00E+00

  Highest occupied state (VBM) at     -1.66768592 eV
  | Occupation number:      1.00000000

  Lowest unoccupied state (CBM) at    -0.96572335 eV
  | Occupation number:      0.00000000

  Overall HOMO-LUMO gap:      0.70196257 eV.

  Total energy components:
  | Sum of eigenvalues            :        -293.26300046 Ha       -7980.09226521 eV
  | XC energy correction          :         -65.59916843 Ha       -1785.04419505 eV
  | XC potential correction       :          83.86863486 Ha        2282.18167072 eV
  | Free-atom electrostatic energy:        -249.78352435 Ha       -6796.95552285 eV
  | Hartree energy correction     :         -11.63675225 Ha        -316.65213973 eV
  | van der Waals energy corr.    :           0.00000000 Ha           0.00000000 eV
  | Entropy correction            :          -0.00010367 Ha          -0.00282095 eV
  | ---------------------------
  | Total energy                  :        -536.41381063 Ha      -14596.56245211 eV
  | Total energy, T -> 0          :        -536.41391430 Ha      -14596.56527306 eV  <-- do not rely on this value for anything but (periodic) metals
  | Electronic free energy        :        -536.41401796 Ha      -14596.56809401 eV

  Derived energy quantities:
  | Kinetic energy                :         535.26222458 Ha       14565.22620144 eV
  | Electrostatic energy          :       -1006.07686678 Ha      -27376.74445850 eV
  | Energy correction for multipole
  | error in Hartree potential    :          -0.01149625 Ha          -0.31282896 eV
  | Sum of eigenvalues per atom                           :        -362.73146660 eV
  | Total energy (T->0) per atom                          :        -663.48023968 eV  <-- do not rely on this value for anything but (periodic) metals
  | Electronic free energy per atom                       :        -663.48036791 eV

  Self-consistency convergence accuracy:
  | Change of charge density      : 0.7020E-02
  | Change of sum of eigenvalues  : -.1959E+01 eV
  | Change of total energy        : 0.6245E-03 eV

  End self-consistency iteration #     7       :  max(cpu_time)    wall_clock(cpu1)
  | Time for this iteration                    :        4.354 s           4.355 s
  | Charge density update                      :        1.370 s           1.370 s
  | Density mixing                             :        0.018 s           0.018 s
  | Hartree multipole update                   :        0.007 s           0.007 s
  | Hartree multipole summation                :        0.683 s           0.683 s
  | Integration                                :        2.150 s           2.150 s
  | Solution of K.-S. eqns.                    :        0.127 s           0.126 s
  | Total energy evaluation                    :        0.000 s           0.000 s
------------------------------------------------------------

------------------------------------------------------------
          Begin self-consistency iteration #    8

  Date     :  20150727, Time     :  114444.677
------------------------------------------------------------
  Evaluating new KS density.
  Integration grid: deviation in total charge (<rho> - N_e) =   1.292761E-10
  Pulay mixing of updated and previous charge densities.

  Evaluating partitioned Hartree potential by multipole expansion.
  | Analytical far-field extrapolation by fixed multipoles:
  | Hartree multipole sum: apparent total charge =  -0.986458E-05
  Summing up the Hartree potential.
  Time summed over all CPUs for potential: real work        5.431 s, elapsed        5.455 s
  | RMS charge density error from multipole expansion :   0.216863E-01

  Integrating Hamiltonian matrix: batch-based integration.
  Time summed over all CPUs for integration: real work       16.979 s, elapsed       17.162 s

  Updating Kohn-Sham eigenvalues, eigenvectors, occupation numbers, and Fermi level.
  Solving generalized eigenproblem
  Updating Kohn-Sham eigenvalues and eigenfunctions.
  Solving real generalised eigenvalue problem by standard LAPACK (fast)
  Determining occupation numbers for Kohn-Sham eigenstates.
  | Chemical potential (Fermi level) in eV                 : -.16733569E+01
  | Error in electron count due to remaining E_F inaccuracy: -.59172578E-09
  | Maximum occupation number of highest empty state:  0.00E+00

  Highest occupied state (VBM) at     -7.17417180 eV
[...]
  | Total energy corrected        :         -0.145967381572206E+05 eV  <-- do not rely on this value for anything but (periodic) metals
  | Electronic free energy        :         -0.145967409781685E+05 eV
  Total atomic forces (unitary forces cleaned) [eV/Ang]:
  |   1         -0.103300179987012E+01          0.126475150302467E+01         -0.124702943462899E+01
  |   2          0.458446782237408E+00         -0.106138769695986E+01          0.355102777041003E+00
  |   3          0.459348421557283E+00         -0.106199275012152E+00         -0.550985167142814E-01
  |   4         -0.384600676034463E-01         -0.154706221744725E+00          0.628208015576416E+00
  |   5         -0.724272947007186E+00         -0.225555266760659E+01         -0.135114246766478E+01
  |   6          0.831724755719755E-01          0.154913721204148E+01          0.133266777113907E+01
  |   7          0.454445964628778E+00          0.570627079756588E+00          0.139831573334246E+00
  |   8          0.426556445862835E+00         -0.632692836402227E+00          0.292006111720915E+01
  |   9         -0.227040794313054E-01          0.131681275793647E+00         -0.129714068720059E-01
  |  10         -0.339904024322024E+00          0.466269348945605E+00         -0.282200332395386E+01
  |  11          0.190942269928192E+01         -0.568387504955652E+00          0.816756687837623E+00
  |  12         -0.290902605701675E+00          0.652458010583631E-01         -0.397762820220486E+00
  |  13         -0.148068271967947E+01          0.788563879138522E+00         -0.346465023440386E+00
  |  14         -0.448602177139358E+00          0.287802395200449E+00          0.209282678966480E+01
  |  15         -0.204572568261077E+00          0.189423429480262E+00         -0.180766447092508E+01
  |  16          0.625116365288225E+00         -0.727420392101924E+00          0.133902079320992E+00
  |  17          0.152480261245586E+01          0.477645766202534E+00         -0.234365177771716E+01
  |  18         -0.236947617096297E+00         -0.793260951950612E-01          0.288716898281808E+00
  |  19         -0.932018031287215E+00         -0.407064898116826E+00          0.180437889679240E+01
  |  20          0.915298712248008E+00         -0.176140660428178E+00         -0.152218646830529E+01
  |  21         -0.510408662396292E+00          0.852493713605309E+00          0.573985119527146E+00
  |  22         -0.594133179336828E+00         -0.474763155724233E+00          0.819537984717669E+00
 
  ------------------------------------ 
  Start decomposition of the XC Energy 
  ------------------------------------ 
  Hartree-Fock part   :          0.000000000 Ha              0.000000000 eV
  ------------------------------------ 
  X Energy            :        -63.267465690 Ha          -1721.595335219 eV
  C Energy GGA        :         -2.329110387 Ha            -63.378318270 eV
  Total XC Energy     :        -65.596576076 Ha          -1784.973653490 eV
  LDA X and C from self-consistent density 
  X Energy LDA        :        -57.066357249 Ha          -1552.854589112 eV
  C Energy LDA        :         -4.666504350 Ha           -126.982044147 eV
  ------------------------------------ 
  End decomposition of the XC Energy 
  ------------------------------------ 
  Performing Hirshfeld analysis of fragment charges and moments.
  ----------------------------------------------------------------------
  | Atom     1: O
  |   Hirshfeld charge        :     -0.15451101
  |   Free atom volume        :     23.95238533
  |   Hirshfeld volume        :     20.94575381
  |   Hirshfeld dipole vector :      0.00765698       0.02816586       0.02414444
  |   Hirshfeld dipole moment :      0.03788006
  |   Hirshfeld second moments:      0.08698095      -0.00714189      -0.00602431
  |                                 -0.00714189       0.05646474      -0.02192055
  |                                 -0.00602431      -0.02192055       0.07002072
  ----------------------------------------------------------------------
  | Atom     2: H
  |   Hirshfeld charge        :      0.11772329
  |   Free atom volume        :     10.44207651
  |   Hirshfeld volume        :      8.78906173
  |   Hirshfeld dipole vector :     -0.00385197       0.01327023      -0.00349738
  |   Hirshfeld dipole moment :      0.01425371
  |   Hirshfeld second moments:      0.06169227       0.02396805      -0.00426420
  |                                  0.02396805       0.03707824       0.01503518
  |                                 -0.00426420       0.01503518       0.07982764
  ----------------------------------------------------------------------
  | Atom     3: H
  |   Hirshfeld charge        :      0.10946606
  |   Free atom volume        :     10.44207651
  |   Hirshfeld volume        :      8.52291386
  |   Hirshfeld dipole vector :      0.01926028       0.00429361       0.00792633
  |   Hirshfeld dipole moment :      0.02126547
  |   Hirshfeld second moments:      0.02940533      -0.02185789      -0.00099290
  |                                 -0.02185789       0.07720156       0.00312885
  |                                 -0.00099290       0.00312885       0.08352210
  ----------------------------------------------------------------------
  | Atom     4: H
  |   Hirshfeld charge        :      0.11117394
  |   Free atom volume        :     10.44207651
  |   Hirshfeld volume        :      8.44616467
  |   Hirshfeld dipole vector :     -0.01355358       0.00093306       0.02007675
  |   Hirshfeld dipole moment :      0.02424141
  |   Hirshfeld second moments:      0.08576684       0.00665817       0.01249738
  |                                  0.00665817       0.08369721       0.00671040
  |                                  0.01249738       0.00671040       0.02616846
  ----------------------------------------------------------------------
  | Atom     5: O
  |   Hirshfeld charge        :     -0.23285900
  |   Free atom volume        :     23.95238533
  |   Hirshfeld volume        :     21.48812138
  |   Hirshfeld dipole vector :     -0.02224846       0.02546253      -0.00631506
  |   Hirshfeld dipole moment :      0.03439788
  |   Hirshfeld second moments:      0.04414504       0.04618368      -0.01405168
  |                                  0.04618368       0.03912542       0.01010899
  |                                 -0.01405168       0.01010899       0.05725487
  ----------------------------------------------------------------------
  | Atom     6: H
  |   Hirshfeld charge        :      0.09468071
  |   Free atom volume        :     10.44207651
  |   Hirshfeld volume        :      8.88397906
  |   Hirshfeld dipole vector :      0.01113774       0.03206933       0.02119955
  |   Hirshfeld dipole moment :      0.04002389
  |   Hirshfeld second moments:      0.06832970       0.00330255      -0.01307665
  |                                  0.00330255       0.03473545      -0.01837331
  |                                 -0.01307665      -0.01837331       0.06423779
  ----------------------------------------------------------------------
  | Atom     7: H
  |   Hirshfeld charge        :      0.14036057
  |   Free atom volume        :     10.44207651
  |   Hirshfeld volume        :      8.85708347
  |   Hirshfeld dipole vector :     -0.07692017      -0.04695947       0.01732876
  |   Hirshfeld dipole moment :      0.09177249
  |   Hirshfeld second moments:      0.05813577       0.00944063      -0.00000773
  |                                  0.00944063       0.07570123       0.01089684
  |                                 -0.00000773       0.01089684       0.08192847
  ----------------------------------------------------------------------
  | Atom     8: O
  |   Hirshfeld charge        :     -0.20974904
  |   Free atom volume        :     23.95238533
  |   Hirshfeld volume        :     22.40925359
  |   Hirshfeld dipole vector :      0.03876473      -0.01186010      -0.01897637
  |   Hirshfeld dipole moment :      0.04476013
  |   Hirshfeld second moments:     -0.00630545       0.00649246       0.03798259
  |                                  0.00649246       0.04907760       0.00451254
  |                                  0.03798259       0.00451254       0.06384456
  ----------------------------------------------------------------------
  | Atom     9: H
  |   Hirshfeld charge        :      0.08803369
  |   Free atom volume        :     10.44207651
  |   Hirshfeld volume        :     11.86647303
  |   Hirshfeld dipole vector :      0.03044649       0.00329998       0.02766900
  |   Hirshfeld dipole moment :      0.04127290
  |   Hirshfeld second moments:     -0.00975366      -0.01611655       0.01383625
  |                                 -0.01611655      -0.02411877      -0.00122889
  |                                  0.01383625      -0.00122889       0.04926524
  ----------------------------------------------------------------------
  | Atom    10: H
  |   Hirshfeld charge        :      0.11435537
  |   Free atom volume        :     10.44207651
  |   Hirshfeld volume        :     11.26430495
  |   Hirshfeld dipole vector :     -0.00787315      -0.01018396      -0.07067356
  |   Hirshfeld dipole moment :      0.07183629
  |   Hirshfeld second moments:      0.02007313       0.00223554       0.01705045
  |                                  0.00223554       0.03927177       0.00790662
  |                                  0.01705045       0.00790662       0.02664704
  ----------------------------------------------------------------------
  | Atom    11: O
  |   Hirshfeld charge        :     -0.22639792
  |   Free atom volume        :     23.95238533
  |   Hirshfeld volume        :     21.89187254
  |   Hirshfeld dipole vector :     -0.01257161      -0.02034354       0.03735279
  |   Hirshfeld dipole moment :      0.04435241
  |   Hirshfeld second moments:      0.06240700      -0.01735464       0.00672199
  |                                 -0.01735464       0.03919668       0.03421416
  |                                  0.00672199       0.03421416       0.00533298
  ----------------------------------------------------------------------
  | Atom    12: H
  |   Hirshfeld charge        :      0.09832446
  |   Free atom volume        :     10.44207651
  |   Hirshfeld volume        :      9.06014273
  |   Hirshfeld dipole vector :      0.00745138       0.01474005       0.03962120
  |   Hirshfeld dipole moment :      0.04292589
  |   Hirshfeld second moments:      0.08238289       0.00448705       0.00059438
  |                                  0.00448705       0.04263131      -0.01321001
  |                                  0.00059438      -0.01321001       0.03219148
  ----------------------------------------------------------------------
  | Atom    13: H
  |   Hirshfeld charge        :      0.13368525
  |   Free atom volume        :     10.44207651
  |   Hirshfeld volume        :      8.88154890
  |   Hirshfeld dipole vector :      0.06801718      -0.05403775       0.01088941
  |   Hirshfeld dipole moment :      0.08754996
  |   Hirshfeld second moments:      0.06956480       0.00614902      -0.00118301
  |                                  0.00614902       0.06940369       0.01580774
  |                                 -0.00118301       0.01580774       0.06964716
  ----------------------------------------------------------------------
  | Atom    14: O
  |   Hirshfeld charge        :     -0.21858988
  |   Free atom volume        :     23.95238533
  |   Hirshfeld volume        :     21.55847325
  |   Hirshfeld dipole vector :     -0.00378600       0.00277232      -0.01443112
  |   Hirshfeld dipole moment :      0.01517488
  |   Hirshfeld second moments:      0.03322706      -0.00943732       0.00497128
  |                                 -0.00943732       0.03736412      -0.00463466
  |                                  0.00497128      -0.00463466       0.06769186
  ----------------------------------------------------------------------
  | Atom    15: H
  |   Hirshfeld charge        :      0.10722428
  |   Free atom volume        :     10.44207651
  |   Hirshfeld volume        :     10.41355552
  |   Hirshfeld dipole vector :      0.00809105      -0.00872406       0.05793072
  |   Hirshfeld dipole moment :      0.05914003
  |   Hirshfeld second moments:      0.04407006      -0.00718518      -0.00360635
  |                                 -0.00718518       0.04713197       0.00242650
  |                                 -0.00360635       0.00242650       0.02550005
  ----------------------------------------------------------------------
  | Atom    16: H
  |   Hirshfeld charge        :      0.08435607
  |   Free atom volume        :     10.44207651
  |   Hirshfeld volume        :      9.44154295
  |   Hirshfeld dipole vector :     -0.01670111       0.01596858      -0.00502405
  |   Hirshfeld dipole moment :      0.02364664
  |   Hirshfeld second moments:      0.03206781       0.01265306      -0.01253139
  |                                  0.01265306       0.03412072       0.00726128
  |                                 -0.01253139       0.00726128       0.06441061
  ----------------------------------------------------------------------
  | Atom    17: O
  |   Hirshfeld charge        :     -0.28253684
  |   Free atom volume        :     23.95238533
  |   Hirshfeld volume        :     22.55117951
  |   Hirshfeld dipole vector :      0.01789482      -0.02518649       0.03616785
  |   Hirshfeld dipole moment :      0.04756782
  |   Hirshfeld second moments:      0.03534789       0.04537232      -0.01933622
  |                                  0.04537232       0.00351865       0.02857736
  |                                 -0.01933622       0.02857736       0.00739999
  ----------------------------------------------------------------------
  | Atom    18: H
  |   Hirshfeld charge        :      0.11439246
  |   Free atom volume        :     10.44207651
  |   Hirshfeld volume        :     10.05288670
  |   Hirshfeld dipole vector :      0.07260349       0.04069006       0.02475425
  |   Hirshfeld dipole moment :      0.08683157
  |   Hirshfeld second moments:      0.04742411       0.01510207      -0.01914225
  |                                  0.01510207       0.04198728       0.00521740
  |                                 -0.01914225       0.00521740       0.05310778
  ----------------------------------------------------------------------
  | Atom    19: H
  |   Hirshfeld charge        :      0.07715053
  |   Free atom volume        :     10.44207651
  |   Hirshfeld volume        :      9.26129951
  |   Hirshfeld dipole vector :     -0.02505358      -0.02142695       0.02757686
  |   Hirshfeld dipole moment :      0.04297999
  |   Hirshfeld second moments:      0.05043673       0.00311226       0.01932694
  |                                  0.00311226       0.05103449       0.02027484
  |                                  0.01932694       0.02027484       0.03781765
  ----------------------------------------------------------------------
  | Atom    20: O
  |   Hirshfeld charge        :     -0.24163128
  |   Free atom volume        :     23.95238533
  |   Hirshfeld volume        :     23.03833550
  |   Hirshfeld dipole vector :      0.03267865       0.01795654       0.02059627
  |   Hirshfeld dipole moment :      0.04259739
  |   Hirshfeld second moments:      0.00008912      -0.03815910      -0.04215505
  |                                 -0.03815910       0.01494573      -0.00682387
  |                                 -0.04215505      -0.00682387       0.02517365
  ----------------------------------------------------------------------
  | Atom    21: H
  |   Hirshfeld charge        :      0.09981704
  |   Free atom volume        :     10.44207651
  |   Hirshfeld volume        :     11.58498323
  |   Hirshfeld dipole vector :     -0.03408181       0.04409214       0.04662240
  |   Hirshfeld dipole moment :      0.07265903
  |   Hirshfeld second moments:      0.02165664      -0.01026843      -0.01796362
  |                                 -0.01026843       0.01558130      -0.00816161
  |                                 -0.01796362      -0.00816161       0.02255640
  ----------------------------------------------------------------------
  | Atom    22: H
  |   Hirshfeld charge        :      0.07549253
  |   Free atom volume        :     10.44207651
  |   Hirshfeld volume        :     12.16086843
  |   Hirshfeld dipole vector :      0.03239444      -0.00398543      -0.01746739
  |   Hirshfeld dipole moment :      0.03701882
  |   Hirshfeld second moments:     -0.00470854      -0.02855713      -0.00840059
  |                                 -0.02855713       0.00123067       0.03127143
  |                                 -0.00840059       0.03127143      -0.00317213
  ----------------------------------------------------------------------


------------------------------------------------------------------------------
  Final output of selected total energy values:

  The following output summarizes some interesting total energy values
  at the end of a run (AFTER all relaxation, molecular dynamics, etc.).

  | Total energy of the DFT / Hartree-Fock s.c.f. calculation      :         -14596.735336273 eV
  | Final zero-broadening corrected energy (caution - metals only) :         -14596.738157221 eV
  | For reference only, the value of 1 Hartree used in FHI-aims is :             27.211384500 eV

  Before relying on these values, please be sure to understand exactly which
  total energy value is referred to by a given number. Different objects may
  all carry the same name 'total energy'. Definitions:

  Total energy of the DFT / Hartree-Fock s.c.f. calculation:
  | Note that this energy does not include ANY quantities calculated after the
  | s.c.f. cycle, in particular not ANY RPA, MP2, etc. many-body perturbation terms.

  Final zero-broadening corrected energy:
  | For metallic systems only, a broadening of the occupation numbers at the Fermi
  | level can be extrapolated back to zero broadening by an electron-gas inspired
  | formula. For all systems that are not real metals, this value can be
  | meaningless and should be avoided.

------------------------------------------------------------------------------

------------------------------------------------------------
          Leaving FHI-aims.
          Date     :  20150727, Time     :  114532.557

          Computational steps:
          | Number of self-consistency cycles          :           16

          Detailed time accounting                     :  max(cpu_time)    wall_clock(cpu1)
          | Total time                                 :       83.323 s          83.368 s
          | Preparation time                           :        0.174 s           0.468 s
          | Grid partitioning                          :        0.239 s           0.239 s
          | Preloading free-atom quantities on grid    :        0.014 s           0.014 s
          | Free-atom superposition energy             :        0.126 s           0.125 s
          | Total time for integrations                :       37.781 s          37.780 s
          | Total time for solution of K.-S. equations :        2.518 s           2.517 s
          | Total time for density & force components  :       27.988 s          27.990 s
          | Total time for mixing                      :        0.313 s           0.311 s
          | Total time for Hartree multipole update    :        0.114 s           0.114 s
          | Total time for Hartree multipole sum       :       13.202 s          13.205 s
          | Total time for total energy evaluation     :        0.006 s           0.011 s
          | Total time for scaled ZORA corrections     :        0.000 s           0.000 s
          | Total time for TS (2009) vdW correction    :        0.106 s           0.106 s

          Have a nice day.
------------------------------------------------------------
