  MPI-parallelism will be employed.
------------------------------------------------------------
          Invoking FHI-aims ...
          Version 081213
          Compiled on 2013/08/29 at 17:41:06 on host generoso.

          When using FHI-aims, please cite the following reference:

          Volker Blum, Ralf Gehrke, Felix Hanke, Paula Havu,
          Ville Havu, Xinguo Ren, Karsten Reuter, and Matthias Scheffler,
          'Ab Initio Molecular Simulations with Numeric Atom-Centered Orbitals: FHI-aims',
          Computer Physics Communications 180, 2175-2196 (2009)

          For any questions about FHI-aims, please visit the aimsclub website
          with its forums and wiki. Contributions to both the forums and the
          wiki are warmly encouraged - they are for you, and everyone is welcome there.

------------------------------------------------------------

  Date     :  20150727, Time     :  124912.242
  Time zero on CPU 1             :   0.439920000000000E-01  s.
  Internal wall clock time zero  :           207233352.242  s.

  Using        8 parallel tasks.
  Task        0 on host gen59 reporting.
  Task        1 on host gen59 reporting.
  Task        2 on host gen59 reporting.
  Task        3 on host gen59 reporting.
  Task        4 on host gen59 reporting.
  Task        5 on host gen59 reporting.
  Task        6 on host gen59 reporting.
  Task        7 on host gen59 reporting.

  Performing system and environment tests:
  | Environment variable OMP_NUM_THREADS correctly set to 1.
  | Checking for scalapack...
  | No scalapack compiled in.

  Obtaining array dimensions for all initial allocations:
  
  -----------------------------------------------------------------------
  Parsing control.in (first pass over file, find array dimensions only).
  The contents of control.in will be repeated verbatim below
  unless switched off by setting 'verbatim_writeout .false.' .
  in the first line of control.in .
  -----------------------------------------------------------------------
  
  #########################################################################################
  #
  #  Volker Blum, FHI 2008 : Test run input file control.in
  #
  #########################################################################################
  #
  #  Physical model
  #
    xc                 rpbe
    spin               none
    relativistic       atomic_zora scalar
    charge             0.
   vdw_correction_hirshfeld
  #
  #  SCF convergence
  #
    occupation_type    gaussian 0.01
    mixer              pulay
      n_max_pulay        10
      charge_mix_param   0.1
    sc_accuracy_rho    5E-5
    sc_accuracy_eev    5E-3
    sc_accuracy_etot   5E-6
    sc_iter_limit      3000
  #
  #  Eigenvalue solver
  #
    KS_method          lapack
      empty_states       8
      basis_threshold    0.e-5
  #
  #  Efficiency
  #
  #   all previous settings are now default, except stratmann still
  #   undecided. Continue to handle stratmann with care, if at all.
  #
  #  partition_type stratmann
    partition_type rho_r2
  #  hartree_partition_type stratmann
  #
  #  Oprions for large clusters (100's of atoms: memory saving / better scaling)
  #
  # for periodic systems:
  #
    density_update_method orbital
    packed_matrix_format none
  #  k_grid 6 6 6
  #  output k_eigenvalue 1
  #  distributed_spline_storage .true.
  #
  #  Relaxation
  #
  #  relax_geometry   bfgs 5.e-3
    sc_accuracy_forces 5.E-4
    final_forces_cleaned .true.
  #
  #  Output options
  #
  #  output mulliken
    output Hirshfeld
  #  output dipole
  
  #harmonic_length_scale 0.001
  
  ################################################################################
  #
  #  FHI-aims code project
  #  VB, Fritz-Haber Institut, 2007
  #
  #  Suggested "safe" defaults for H atom (to be pasted into control.in file)
  #  Basis constructed for a non-relativistic H2 molecule using the
  #  PW-LDA functional.
  #
  ################################################################################
    species        H
  #     global species definitions
      nucleus             1
      cut_pot             4.0  2.0  1.0
      cut_free_atom       finite 8.0
      logarithmic         0.00010000 100.00  1.0123
      basis_dep_cutoff    1d-4  # 1d-4 is safe default - please check 5d-4 if you wish!
      radial_base         24 7.0
      radial_multiplier   2
      angular_grids       specified
        division   0.2783  110
        division   0.3822  194
        division   0.5626  302
  #      division   0.5922  434
  #      division   0.6227  590
  #      division   0.7206  770
        outer_grid  302
      l_hartree           4
  ################################################################################
  #
  #  Definition of "minimal" basis
  #
  ################################################################################
  #     valence basis states
      valence      1  s   1.
  #     ion occupancy
      ion_occ      1  s   0.5
  ################################################################################
  #
  #  Suggested additional basis functions. For production calculations,
  #  uncomment them one after another (the most important basis functions are
  #  listed first).
  #
  ################################################################################
  #  "First tier" - improvements: -1014.90 meV to -62.69 meV
       hydro 2 s 2.1
       hydro 2 p 3.5
  #  "Second tier" - improvements: -12.89 meV to -1.83 meV
       hydro 1 s 0.85
       hydro 2 p 3.7
       hydro 2 s 1.2
       hydro 3 d 7
  #  "Third tier" - improvements: -0.25 meV to -0.12 meV
  #     hydro 4 f 11.2
  #     hydro 3 p 4.8
  #     hydro 4 d 9
  #     hydro 3 s 3.2
  
  ################################################################################
  #
  #  FHI-aims code project
  #  VB, Fritz-Haber Institut, 2007
  #
  #  Suggested "safe" defaults for O atom (to be pasted into control.in file)
  #  All values have been tested for a non-relativistic, non-spinpolarized O2
  #  molecule using the PW-LDA functional. Validity for PBE is expected.
  #
  #  Constructed for dimers: 1.0 A, 1.208 A, 1.5 A, 2.0 A, 3.0 A
  #
  ################################################################################
    species        O
  #     global species definitions
      nucleus             8
      mass                15.9994
      l_hartree           4
      cut_pot             4.0  2.0  1.0
      cut_free_atom       finite 8.0
      basis_dep_cutoff    1d-4  # 1d-4 is safe default - please check 5d-4 if you wish!
      logarithmic         0.00010000 100.00  1.0123
      radial_base         36 7.0
      radial_multiplier   2
       angular_grids specified
        division   0.4087  110
        division   0.5181  194
        division   0.6184  302
  #      division   0.7315  434
  #      division   0.7934  590
  #      division   0.9656  770
  #      division   1.4041  974
  #      outer_grid 974
        outer_grid 302
  ################################################################################
  #
  #  Definition of "minimal" basis
  #
  ################################################################################
  #     valence basis states
      valence      2  s   2.
      valence      2  p   4.
  #     ion occupancy
      ion_occ      2  s   1.
      ion_occ      2  p   3.
  ################################################################################
  #
  #  Suggested additional basis functions. For production calculations,
  #  uncomment them one after another (the most important basis functions are
  #  listed first).
  #
  ################################################################################
  #  "First tier" - improvements: -699.05 meV to -159.38 meV
       hydro 2 p 1.8
       hydro 3 d 7.6
       hydro 3 s 6.4
  #  "Second tier" - improvements: -49.91 meV to -5.39 meV
       hydro 4 f 11.6
       hydro 3 p 6.2
       hydro 3 d 5.6
       hydro 5 g 17.6
       hydro 1 s 0.75
  #  "Third tier" - improvements: -2.83 meV to -0.50 meV
  #     ionic 2 p auto
  #     hydro 4 f 10.8
  #     hydro 4 d 4.7
  #     hydro 2 s 6.8
  #  "Fourth tier" - improvements: -0.40 meV to -0.12 meV
  #     hydro 3 p 5
  #     hydro 3 s 3.3
  #     hydro 5 g 15.6
  #     hydro 4 f 17.6
  #     hydro 4 d 14
  # Further basis functions - -0.08 meV and below
  #     hydro 3 s 2.1
  #     hydro 4 d 11.6
  #     hydro 3 p 16
  #     hydro 2 s 17.2
  
  
  -----------------------------------------------------------------------
  Completed first pass over input file control.in .
  -----------------------------------------------------------------------
  
  
  -----------------------------------------------------------------------
  Parsing geometry.in (first pass over file, find array dimensions only).
  The contents of geometry.in will be repeated verbatim below
  unless switched off by setting 'verbatim_writeout .false.' .
  in the first line of geometry.in .
  -----------------------------------------------------------------------
  
  atom      -4.053030000      0.065001000     -1.525160000  O
  atom      -4.566710000      0.974813000     -1.912820000  H
  atom      -3.067820000      0.330172000     -1.477310000  H
  atom      -4.370360000     -0.049164000     -0.572274000  H
  atom      -5.293160000      2.192130000     -2.328800000  O
  atom      -4.829300000      2.988660000     -1.973850000  H
  atom      -5.428570000      2.328640000     -3.235170000  H
  atom      -3.818880000      2.024990000      2.187990000  O
  atom      -3.690880000      1.961360000      3.202150000  H
  atom      -4.546490000      2.751300000      2.045370000  H
  atom      -5.628340000      3.730740000      1.385610000  O
  atom      -6.090650000      4.418470000      1.860350000  H
  atom      -5.158540000      4.200260000      0.615875000  H
  
  -----------------------------------------------------------------------
  Completed first pass over input file geometry.in .
  -----------------------------------------------------------------------
  
 
  Basic array size parameters: 
  | Number of species                 :        2
  | Number of atoms                   :       13
  | Max. basis fn. angular momentum   :        4
  | Max. atomic/ionic basis occupied n:        2
  | Max. number of basis fn. types    :        2
  | Max. radial fns per species/type  :        8
  | Max. logarithmic grid size        :     1301
  | Max. radial integration grid size :       73
  | Max. angular integration grid size:      302
  | Max. angular grid division number :        8
  | Radial grid for Hartree potential :     1301
  | Number of spin channels           :        1

------------------------------------------------------------
          Reading file control.in.
------------------------------------------------------------
  XC: Using RPBE gradient-corrected functionals.
  Spin treatment: No spin polarisation.
  Scalar relativistic treatment of kinetic energy: on-site free-atom approximation to ZORA.
  Charge =   0.000000E+00: Neutral system requested explicitly.
  Using non-empirical van der Waals correction (Hirshfeld partitioning):
  Occupation type: Gaussian broadening, width =   0.100000E-01 eV.
  Using pulay charge density mixing.
  Pulay mixing - number of memorized iterations:   10
  Charge density mixing - mixing parameter:     0.1000
  Convergence accuracy of self-consistent charge density: 0.5000E-04
  Convergence accuracy of sum of eigenvalues: 0.5000E-02
  Convergence accuracy of total energy: 0.5000E-05
  Maximum number of s.-c. iterations  :  3000
  Kohn-Sham eigenvalues and eigenfunctions calculated by lapack diagonalisation (D&C).
  Number of empty states per atom:        8
  Threshold for basis singularities: 0.0000E+00
  Partition function in integrals calculations: rho / r^2
 Using packed matrix format           0
  Convergence accuracy of forces: 0.5000E-03
  Cleaning forces before final output.
  Hirshfeld charge analysis will be performed.
 
  Reading configuration options for species H                   .
  | Found nuclear charge :   1.0000
  | Found cutoff potl. onset [A], width [A], scale factor :    4.00000    2.00000    1.00000
  | Found cutoff specification for free atom: Cutoff potential begins at    8.00000 A.
  | Found logarithmic grid data [bohr] : 0.1000E-03 0.1000E+03 0.1012E+01
  | Threshold for basis-dependent cutoff potential is   0.100000E-03
  | Found data for basic radial integration grid :    24 points, outermost radius =    7.000 A
  | Found multiplier for basic radial grid :   2
  | Found angular grid specification: user-specified.
  | Specified grid contains     4 separate shells.
  | Check grid settings after all constraints further below.
  | Found l_max for Hartree potential  :   4
  | Found free-atom valence shell :  1 s   1.000
  | No ionic wave fns used. Skipping ion_occ.
  | Found hydrogenic basis function :  2 s   2.100
  | Found hydrogenic basis function :  2 p   3.500
  | Found hydrogenic basis function :  1 s   0.850
  | Found hydrogenic basis function :  2 p   3.700
  | Found hydrogenic basis function :  2 s   1.200
  | Found hydrogenic basis function :  3 d   7.000
  Species H                   : Missing cutoff potential type.
  Defaulting to exp(1/x)/(1-x)^2 type cutoff potential.
  Species H : On-site basis accuracy parameter (for Gram-Schmidt orthonormalisation) not specified.
  Using default value basis_acc =  0.1000000E-03.
  Species H                   : Using default innermost maximum threshold i_radial=  2 for radial functions.
  Species H                   : Basic radial grid will be enhanced according to radial_multiplier =   2, to contain    49 grid points.
 
  Reading configuration options for species O                   .
  | Found nuclear charge :   8.0000
  | Found atomic mass :    15.9994000000000      amu
  | Found l_max for Hartree potential  :   4
  | Found cutoff potl. onset [A], width [A], scale factor :    4.00000    2.00000    1.00000
  | Found cutoff specification for free atom: Cutoff potential begins at    8.00000 A.
  | Threshold for basis-dependent cutoff potential is   0.100000E-03
  | Found logarithmic grid data [bohr] : 0.1000E-03 0.1000E+03 0.1012E+01
  | Found data for basic radial integration grid :    36 points, outermost radius =    7.000 A
  | Found multiplier for basic radial grid :   2
  | Found angular grid specification: user-specified.
  | Specified grid contains     4 separate shells.
  | Check grid settings after all constraints further below.
  | Found free-atom valence shell :  2 s   2.000
  | Found free-atom valence shell :  2 p   4.000
  | No ionic wave fns used. Skipping ion_occ.
  | No ionic wave fns used. Skipping ion_occ.
  | Found hydrogenic basis function :  2 p   1.800
  | Found hydrogenic basis function :  3 d   7.600
  | Found hydrogenic basis function :  3 s   6.400
  | Found hydrogenic basis function :  4 f  11.600
  | Found hydrogenic basis function :  3 p   6.200
  | Found hydrogenic basis function :  3 d   5.600
  | Found hydrogenic basis function :  5 g  17.600
  | Found hydrogenic basis function :  1 s   0.750
  Species O                   : Missing cutoff potential type.
  Defaulting to exp(1/x)/(1-x)^2 type cutoff potential.
  Species O : On-site basis accuracy parameter (for Gram-Schmidt orthonormalisation) not specified.
  Using default value basis_acc =  0.1000000E-03.
  Species O                   : Using default innermost maximum threshold i_radial=  2 for radial functions.
  Species O                   : Basic radial grid will be enhanced according to radial_multiplier =   2, to contain    73 grid points.
 
  Finished reading input file 'control.in'. Consistency checks are next.
 
  Target number of points in a grid batch is not set. Defaulting to  100
  Method for grid partitioning is not set. Defaulting to parallel hash+maxmin partitioning.
  Batch size limit is not set. Defaulting to    200
  By default, will store active basis functions for each batch.
  If in need of memory, prune_basis_once .false. can be used to disable this option.
  communication_type for Hartree potential was not specified.
  Defaulting to calc_hartree .
  Pulay mixer: Number of initial linear mixing iterations not set.
  Defaulting to    0 iterations.
  Work space size for distributed Hartree potential not set.
  Defaulting to   0.200000E+03 MB.
  Algorithm-dependent basis array size parameters:
  | n_max_pulay                         :       10
  Geometry relaxation not requested: no relaxation will be performed.
  Handling of forces: Unphysical translation and rotation will be removed from forces.
  No accuracy limit for integral partition fn. given. Defaulting to 0.1000E-14.
  No threshold value for u(r) in integrations given. Defaulting to 0.1000E-05.
  No accuracy for occupation numbers given. Defaulting to 0.1000E-07.
  No threshold value for occupation numbers given. Defaulting to 0.0000E+00.
  No accuracy for fermi level given. Defaulting to 0.1000E-19.
  Maximum # of iterations to find E_F not set. Defaulting to  200.
  Will not use alltoall communication since running on < 1024 CPUs.
  Partitioning for Hartree potential was not defined. Using partition_type for integrals.
  | Reporting present value of keyword multip_moments_threshold  :       0.10000000E-09
  | This value may affect high angular momentum components of the Hartree potential in periodic systems.
  No q(lm)/r^(l+1) cutoff set for long-range Hartree potential.
  | Using default value of  0.100000E-09 .
  | Verify using the multipole_threshold keyword.
  Defaulting to new monopole extrapolation.
  Density update method: Loop over occupied states selected for charge density update.
------------------------------------------------------------


------------------------------------------------------------
          Reading geometry description geometry.in.
------------------------------------------------------------
  Input structure read successfully.
  The structure contains       13 atoms,  and a total of         41.000 electrons.

  Input geometry:
  | No unit cell requested.
  | Atomic structure:
  |       Atom                x [A]            y [A]            z [A]
  |    1: Species O             -4.053030         0.065001        -1.525160
  |    2: Species H             -4.566710         0.974813        -1.912820
  |    3: Species H             -3.067820         0.330172        -1.477310
  |    4: Species H             -4.370360        -0.049164        -0.572274
  |    5: Species O             -5.293160         2.192130        -2.328800
  |    6: Species H             -4.829300         2.988660        -1.973850
  |    7: Species H             -5.428570         2.328640        -3.235170
  |    8: Species O             -3.818880         2.024990         2.187990
  |    9: Species H             -3.690880         1.961360         3.202150
  |   10: Species H             -4.546490         2.751300         2.045370
  |   11: Species O             -5.628340         3.730740         1.385610
  |   12: Species H             -6.090650         4.418470         1.860350
  |   13: Species H             -5.158540         4.200260         0.615875
  |

  | The smallest distance between any two atoms is         0.92654057 AA.
  |
  | The first atom of this pair is atom number                      5 .
  | The second atom of this pair is atom number                     7 .

  Structure-dependent array size parameters: 
  | Maximum number of distinct radial functions  :       18
  | Maximum number of basis functions            :      291
  | Number of Kohn-Sham states (occupied + empty):       73
------------------------------------------------------------

------------------------------------------------------------
          Preparing all fixed parts of the calculation.
------------------------------------------------------------
  Determining machine precision:
    2.225073858507201E-308
  Setting up grids for atomic and cluster calculations.

  Creating wave function, potential, and density for free atoms.

  Species: H

  List of occupied orbitals and eigenvalues:
    n    l              occ      energy [Ha]    energy [eV]
    1    0           1.0000        -0.241408        -6.5691


  Species: O

  List of occupied orbitals and eigenvalues:
    n    l              occ      energy [Ha]    energy [eV]
    1    0           2.0000       -18.944147      -515.4965
    2    0           2.0000        -0.883529       -24.0421
    2    1           4.0000        -0.330176        -8.9845

  Creating fixed part of basis set: Ionic, confined, hydrogenic.
 
  H                    hydrogenic:
 
  List of hydrogenic basis orbitals: 
    n    l      effective z      eigenvalue [eV]  inner max. [A]     outer max. [A]     outer radius [A]   
    2    0         2.100000       -14.9965           0.193241           1.317192           5.372934
    2    1         3.500000       -41.6672           0.602363           0.602363           4.056010
    1    0         0.850000        -9.8292           0.624864           0.624864           5.372934
    2    1         3.700000       -46.5653           0.573616           0.573616           3.909951
    2    0         1.200000        -4.5995           0.334977           2.228160           5.505921
    3    2         7.000000       -74.0753           0.680692           0.680692           3.769152
 
 
  O                    hydrogenic:
 
  List of hydrogenic basis orbitals: 
    n    l      effective z      eigenvalue [eV]  inner max. [A]     outer max. [A]     outer radius [A]   
    2    1         1.800000       -11.0118           1.178546           1.178546           5.432516
    3    2         7.600000       -87.3182           0.624117           0.624117           3.541422
    3    0         6.400000       -61.9209           0.061166           1.081887           4.306510
    4    3        11.600000      -114.4238           0.731621           0.731621           3.584982
    3    1         6.200000       -58.1113           0.255677           1.030255           4.306510
    3    2         5.600000       -47.4081           0.847222           0.847222           4.413102
    5    4        17.600000      -168.5799           0.749730           0.749730           3.372413
    1    0         0.750000        -7.6499           0.705275           0.705275           5.366508
 

  Adding cutoff potential to free-atom effective potential.
  Creating atomic-like basis functions for current effective potential.

  Species H                   :

  List of atomic basis orbitals and eigenvalues:
    n    l      energy [Ha]    energy [eV]    outer radius [A]
    1    0        -0.241374        -6.5681       5.372934


  Species O                   :

  List of atomic basis orbitals and eigenvalues:
    n    l      energy [Ha]    energy [eV]    outer radius [A]
    1    0       -18.944147      -515.4965       1.415745
    2    0        -0.883529       -24.0421       5.048305
    2    1        -0.330173        -8.9845       5.301302

  Assembling full basis from fixed parts.
  | Species H :   atomic orbital   1 s accepted.
  | Species H :    hydro orbital   2 s accepted.
  | Species H :    hydro orbital   1 s accepted.
  | Species H :    hydro orbital   2 s accepted.
  | Species H :    hydro orbital   2 p accepted.
  | Species H :    hydro orbital   2 p accepted.
  | Species H :    hydro orbital   3 d accepted.
  | Species O :   atomic orbital   1 s accepted.
  | Species O :    hydro orbital   3 s accepted.
  | Species O :   atomic orbital   2 s accepted.
  | Species O :    hydro orbital   1 s accepted.
  | Species O :    hydro orbital   3 p accepted.
  | Species O :   atomic orbital   2 p accepted.
  | Species O :    hydro orbital   2 p accepted.
  | Species O :    hydro orbital   3 d accepted.
  | Species O :    hydro orbital   3 d accepted.
  | Species O :    hydro orbital   4 f accepted.
  | Species O :    hydro orbital   5 g accepted.
 
  Basis size parameters after reduction:
  | Total number of radial functions:       18
  | Total number of basis functions :      291
 
  Testing on-site integration grid accuracy.
  |  Species  Function  <phi|h_atom|phi> (log., in eV)  <phi|h_atom|phi> (rad., in eV)
           1        1                 -6.5683835025                 -6.5684759159
           1        2                 13.3711789951                 13.3708738703
           1        3                 23.6590910787                 23.6532055418
           1        4                 16.2963827186                 16.1870710655 ***
           1        5                 28.7627214838                 28.7627215090
           1        6                 59.5965249172                 59.5965950857
           1        7                 60.2220506392                 60.2220503827
           2        8               -515.4964576505               -515.4964530710
           2        9                 15.3030791347                 15.3030722972
           2       10                -21.7296094581                -21.7296135470
           2       11                 14.2969371730                 14.2969701621
           2       12                 21.0679693190                 21.0679697493
           2       13                 -2.3833606469                 -2.3833613176
           2       14                 13.7067136422                 13.7066766629
           2       15                 45.8013116808                 45.8013116965
           2       16                 52.2309815402                 52.2309831494
           2       17                 85.4120732416                 85.4120732763
           2       18                142.1019167745                142.1019167817
 * Note: Onsite integrals marked "***" above are less accurate than
 * onsite_accuracy_threshold =    0.03000 eV. Usually, this is harmless.
 * When in doubt, tighten the "radial" and/or "radial_multiplier" flags to check.

  Preparing densities etc. for the partition functions (integrals / Hartree potential).

  Preparations completed.
  max(cpu_time)          :      0.171 s.
  Wall clock time (cpu1) :      0.588 s.
------------------------------------------------------------

------------------------------------------------------------
          Begin self-consistency loop: Initialization.

          Date     :  20150727, Time     :  124912.865
------------------------------------------------------------

  Initializing index lists of integration centers etc. from given atomic structure:
  | Number of centers in hartree potential         :        13
  | Number of centers in hartree multipole         :        13
  | Number of centers in electron density summation:        13
  | Number of centers in basis integrals           :        13
  | Number of centers in integrals                 :        13
  Partitioning the integration grid into batches with parallel hashing+maxmin method.
  | Number of batches:     1672
  | Maximal batch size:     190
  | Minimal batch size:      58
  | Average batch size:     101.054
  | Standard deviation of batch sizes:      32.847

  Integration load balanced across     8 MPI tasks.
  Work distribution over tasks is as follows:
  Task     0 has      21095 integration points.
  Task     1 has      21154 integration points.
  Task     2 has      21135 integration points.
  Task     3 has      21154 integration points.
  Task     4 has      21136 integration points.
  Task     5 has      21028 integration points.
  Task     6 has      21159 integration points.
  Task     7 has      21101 integration points.
  Initializing partition tables, free-atom densities, potentials, etc. across the integration grid (initialize_grid_storage).
  | Net number of integration points:   168962
  | of which are non-zero points    :   168440
  Obtaining max. number of non-zero basis functions in each batch (get_n_compute_maxes).
  | Maximal number of non-zero basis functions:      289 in task     0
  | Maximal number of non-zero basis functions:      289 in task     1
  | Maximal number of non-zero basis functions:      288 in task     2
  | Maximal number of non-zero basis functions:      288 in task     3
  | Maximal number of non-zero basis functions:      289 in task     4
  | Maximal number of non-zero basis functions:      289 in task     5
  | Maximal number of non-zero basis functions:      289 in task     6
  | Maximal number of non-zero basis functions:      288 in task     7
  Integrating Hamiltonian matrix: batch-based integration.
  Time summed over all CPUs for integration: real work        4.721 s, elapsed        4.776 s
  Integrating overlap matrix.
  Time summed over all CPUs for integration: real work        2.490 s, elapsed        2.522 s

  Updating Kohn-Sham eigenvalues, eigenvectors, occupation numbers, and Fermi level.
  Solving generalized eigenproblem
  Updating Kohn-Sham eigenvalues and eigenfunctions.
  Transforming overlap matrix and checking for singularities.
  Overlap matrix is nonsingular:
  | Lowest eigenvalue:  0.324920E-03
  Solving real generalised eigenvalue problem by standard LAPACK (fast)
  Determining occupation numbers for Kohn-Sham eigenstates.
  | Chemical potential (Fermi level) in eV                 : -.27658946E+01
  | Error in electron count due to remaining E_F inaccuracy: -.20977993E-08
  | Maximum occupation number of highest empty state:  0.00E+00

  Writing Kohn-Sham eigenvalues.

  State    Occupation    Eigenvalue [Ha]    Eigenvalue [eV]
      1       2.00000         -19.064881         -518.78181
      2       2.00000         -19.064860         -518.78122
      3       2.00000         -19.050516         -518.39091
      4       2.00000         -19.028881         -517.80220
      5       2.00000          -1.127484          -30.68041
      6       2.00000          -1.112503          -30.27275
      7       2.00000          -1.098969          -29.90447
      8       2.00000          -1.059629          -28.83397
      9       2.00000          -0.650828          -17.70993
     10       2.00000          -0.628224          -17.09484
     11       2.00000          -0.627426          -17.07313
     12       2.00000          -0.619844          -16.86683
     13       2.00000          -0.600030          -16.32763
     14       2.00000          -0.524836          -14.28152
     15       2.00000          -0.518373          -14.10563
     16       2.00000          -0.487249          -13.25873
     17       2.00000          -0.482918          -13.14087
     18       2.00000          -0.452527          -12.31389
     19       2.00000          -0.438264          -11.92577
     20       2.00000          -0.417239          -11.35366
     21       1.00000          -0.101645           -2.76589
     22       0.00000          -0.074971           -2.04007
     23       0.00000          -0.060817           -1.65492
     24       0.00000          -0.038751           -1.05448
     25       0.00000          -0.019873           -0.54077
     26       0.00000          -0.013656           -0.37159
     27       0.00000           0.025336            0.68943
     28       0.00000           0.045742            1.24469
     29       0.00000           0.049482            1.34648
     30       0.00000           0.070220            1.91079
     31       0.00000           0.073117            1.98960
     32       0.00000           0.085010            2.31324
     33       0.00000           0.089587            2.43779
     34       0.00000           0.095002            2.58513
     35       0.00000           0.101314            2.75689
     36       0.00000           0.105223            2.86327
     37       0.00000           0.113922            3.09997
     38       0.00000           0.128800            3.50483
     39       0.00000           0.135929            3.69880
     40       0.00000           0.151925            4.13410
     41       0.00000           0.156081            4.24718
     42       0.00000           0.182040            4.95357
     43       0.00000           0.184881            5.03086
     44       0.00000           0.210486            5.72763
     45       0.00000           0.232950            6.33889
     46       0.00000           0.242284            6.59287
     47       0.00000           0.260181            7.07988
     48       0.00000           0.267357            7.27516
     49       0.00000           0.285931            7.78059
     50       0.00000           0.315006            8.57175
     51       0.00000           0.330534            8.99430
     52       0.00000           0.339223            9.23073
     53       0.00000           0.353907            9.63030
     54       0.00000           0.361384            9.83377
     55       0.00000           0.370187           10.07330
     56       0.00000           0.379879           10.33703
     57       0.00000           0.394699           10.74031
     58       0.00000           0.407525           11.08932
     59       0.00000           0.430957           11.72693
     60       0.00000           0.441399           12.01107
     61       0.00000           0.457383           12.44602
     62       0.00000           0.460841           12.54012
     63       0.00000           0.491688           13.37950
     64       0.00000           0.517693           14.08714
     65       0.00000           0.533194           14.50895
     66       0.00000           0.543367           14.78576
     67       0.00000           0.559167           15.21571
     68       0.00000           0.584624           15.90843
     69       0.00000           0.635415           17.29053
     70       0.00000           0.646008           17.57877
     71       0.00000           0.711989           19.37420
     72       0.00000           0.734031           19.97399
     73       0.00000           0.754401           20.52829

  Highest occupied state (VBM) at    -11.35365997 eV
  | Occupation number:      2.00000000

  Lowest unoccupied state (CBM) at    -2.76589464 eV
  | Occupation number:      1.00000000

  Overall HOMO-LUMO gap:      8.58776533 eV.
  Calculating total energy contributions from superposition of free atom densities.

  Total energy components:
  | Sum of eigenvalues            :        -174.21260708 Ha       -4740.56623590 eV
  | XC energy correction          :         -36.80681171 Ha       -1001.56430556 eV
  | XC potential correction       :          47.03909612 Ha        1279.99893092 eV
  | Free-atom electrostatic energy:        -142.93295564 Ha       -3889.40361366 eV
  | Hartree energy correction     :           0.00000000 Ha           0.00000000 eV
  | van der Waals energy corr.    :           0.00000000 Ha           0.00000000 eV
  | Entropy correction            :          -0.00010367 Ha          -0.00282095 eV
  | ---------------------------
  | Total energy                  :        -306.91327831 Ha       -8351.53522420 eV
  | Total energy, T -> 0          :        -306.91338198 Ha       -8351.53804514 eV  <-- do not rely on this value for anything but (periodic) metals
  | Electronic free energy        :        -306.91348564 Ha       -8351.54086609 eV

  Derived energy quantities:
  | Kinetic energy                :         304.00039686 Ha        8272.27168708 eV
  | Electrostatic energy          :        -574.10686346 Ha      -15622.24260572 eV
  | Energy correction for multipole
  | error in Hartree potential    :           0.00000000 Ha           0.00000000 eV
  | Sum of eigenvalues per atom                           :        -364.65894122 eV
  | Total energy (T->0) per atom                          :        -642.42600347 eV  <-- do not rely on this value for anything but (periodic) metals
  | Electronic free energy per atom                       :        -642.42622047 eV
  Initialize hartree_potential_storage
  Max. number of atoms included in rho_multipole:           13

  End scf initialization - timings             :  max(cpu_time)    wall_clock(cpu1)
  | Time for scf. initialization               :        1.337 s           1.337 s
  | Boundary condition initialization          :        0.000 s           0.001 s
  | Integration                                :        0.915 s           0.915 s
  | Solution of K.-S. eqns.                    :        0.136 s           0.136 s
  | Grid partitioning                          :        0.120 s           0.120 s
  | Preloading free-atom quantities on grid    :        0.014 s           0.013 s
  | Free-atom superposition energy             :        0.052 s           0.052 s
  | Total energy evaluation                    :        0.000 s           0.000 s
------------------------------------------------------------

------------------------------------------------------------
          Begin self-consistency iteration #    1

  Date     :  20150727, Time     :  124914.202
------------------------------------------------------------
  Evaluating new KS density.
  Integration grid: deviation in total charge (<rho> - N_e) =  -2.097785E-09
  Pulay mixing of updated and previous charge densities.

  Evaluating partitioned Hartree potential by multipole expansion.
  | Analytical far-field extrapolation by fixed multipoles:
  | Hartree multipole sum: apparent total charge =  -0.737989E-06
  Summing up the Hartree potential.
  Time summed over all CPUs for potential: real work        1.918 s, elapsed        1.923 s
  | RMS charge density error from multipole expansion :   0.148128E-02

  Integrating Hamiltonian matrix: batch-based integration.
  Time summed over all CPUs for integration: real work        4.709 s, elapsed        4.760 s

  Updating Kohn-Sham eigenvalues, eigenvectors, occupation numbers, and Fermi level.
  Solving generalized eigenproblem
  Updating Kohn-Sham eigenvalues and eigenfunctions.
  Solving real generalised eigenvalue problem by standard LAPACK (fast)
  Determining occupation numbers for Kohn-Sham eigenstates.
  | Chemical potential (Fermi level) in eV                 : -.25957453E+01
  | Error in electron count due to remaining E_F inaccuracy: 0.54926375E-09
  | Maximum occupation number of highest empty state:  0.00E+00

  Writing Kohn-Sham eigenvalues.

  State    Occupation    Eigenvalue [Ha]    Eigenvalue [eV]
      1       2.00000         -19.017378         -517.48920
      2       2.00000         -18.996008         -516.90769
      3       2.00000         -18.976111         -516.36624
      4       2.00000         -18.942966         -515.46434
      5       2.00000          -1.103246          -30.02086
      6       2.00000          -1.084208          -29.50280
      7       2.00000          -1.061428          -28.88291
      8       2.00000          -1.013452          -27.57744
      9       2.00000          -0.623444          -16.96477
     10       2.00000          -0.610616          -16.61572
     11       2.00000          -0.600457          -16.33927
     12       2.00000          -0.595276          -16.19827
     13       2.00000          -0.561976          -15.29214
     14       2.00000          -0.496810          -13.51888
     15       2.00000          -0.479080          -13.03642
     16       2.00000          -0.462761          -12.59238
     17       2.00000          -0.439416          -11.95711
     18       2.00000          -0.420224          -11.43487
     19       2.00000          -0.397593          -10.81904
     20       2.00000          -0.369723          -10.06068
     21       1.00000          -0.095392           -2.59575
     22       0.00000          -0.068156           -1.85461
     23       0.00000          -0.052754           -1.43550
     24       0.00000          -0.030307           -0.82471
     25       0.00000          -0.015286           -0.41595
     26       0.00000          -0.007815           -0.21266
     27       0.00000           0.032607            0.88729
     28       0.00000           0.050186            1.36563
     29       0.00000           0.057728            1.57085
     30       0.00000           0.076499            2.08163
     31       0.00000           0.079699            2.16873
     32       0.00000           0.093460            2.54319
     33       0.00000           0.098982            2.69344
     34       0.00000           0.101202            2.75383
     35       0.00000           0.109149            2.97009
     36       0.00000           0.113327            3.08379
     37       0.00000           0.127471            3.46866
     38       0.00000           0.134300            3.65450
     39       0.00000           0.144459            3.93094
     40       0.00000           0.160448            4.36601
     41       0.00000           0.164897            4.48708
     42       0.00000           0.188437            5.12763
     43       0.00000           0.194287            5.28682
     44       0.00000           0.217502            5.91854
     45       0.00000           0.240070            6.53265
     46       0.00000           0.247604            6.73765
     47       0.00000           0.267564            7.28079
     48       0.00000           0.273732            7.44862
     49       0.00000           0.292122            7.94905
     50       0.00000           0.321075            8.73689
     51       0.00000           0.336338            9.15222
     52       0.00000           0.347123            9.44571
     53       0.00000           0.360053            9.79755
     54       0.00000           0.369957           10.06705
     55       0.00000           0.382388           10.40531
     56       0.00000           0.387672           10.54910
     57       0.00000           0.399591           10.87344
     58       0.00000           0.415573           11.30832
     59       0.00000           0.438211           11.92432
     60       0.00000           0.448602           12.20708
     61       0.00000           0.465812           12.67540
     62       0.00000           0.468771           12.75591
     63       0.00000           0.499185           13.58350
     64       0.00000           0.527275           14.34787
     65       0.00000           0.543420           14.78720
     66       0.00000           0.552994           15.04773
     67       0.00000           0.569151           15.48738
     68       0.00000           0.595296           16.19882
     69       0.00000           0.643093           17.49945
     70       0.00000           0.656781           17.87191
     71       0.00000           0.723613           19.69051
     72       0.00000           0.746276           20.30721
     73       0.00000           0.760771           20.70164

  Highest occupied state (VBM) at     -2.59574525 eV
  | Occupation number:      1.00000000

  Lowest unoccupied state (CBM) at    -1.85461201 eV
  | Occupation number:      0.00000000

  Overall HOMO-LUMO gap:      0.74113325 eV.

  Total energy components:
  | Sum of eigenvalues            :        -172.59973823 Ha       -4696.67784167 eV
  | XC energy correction          :         -36.97959083 Ha       -1006.26586463 eV
  | XC potential correction       :          47.26492814 Ha        1286.14413291 eV
  | Free-atom electrostatic energy:        -142.93295564 Ha       -3889.40361366 eV
  | Hartree energy correction     :          -1.56839081 Ha         -42.67808529 eV
  | van der Waals energy corr.    :           0.00000000 Ha           0.00000000 eV
  | Entropy correction            :          -0.00010367 Ha          -0.00282095 eV
  | ---------------------------
  | Total energy                  :        -306.81574737 Ha       -8348.88127234 eV
  | Total energy, T -> 0          :        -306.81585104 Ha       -8348.88409328 eV  <-- do not rely on this value for anything but (periodic) metals
  | Electronic free energy        :        -306.81595471 Ha       -8348.88691423 eV

  Derived energy quantities:
  | Kinetic energy                :         305.05908448 Ha        8301.08004305 eV
  | Electrostatic energy          :        -574.89524103 Ha      -15643.69545075 eV
  | Energy correction for multipole
  | error in Hartree potential    :           0.00027236 Ha           0.00741131 eV
  | Sum of eigenvalues per atom                           :        -361.28291090 eV
  | Total energy (T->0) per atom                          :        -642.22185333 eV  <-- do not rely on this value for anything but (periodic) metals
  | Electronic free energy per atom                       :        -642.22207033 eV

  Self-consistency convergence accuracy:
  | Change of charge density      : 0.5622E+00
  | Change of sum of eigenvalues  : 0.4389E+02 eV
  | Change of total energy        : 0.2654E+01 eV

  End self-consistency iteration #     1       :  max(cpu_time)    wall_clock(cpu1)
  | Time for this iteration                    :        1.323 s           1.323 s
  | Charge density update                      :        0.442 s           0.442 s
  | Density mixing                             :        0.003 s           0.003 s
  | Hartree multipole update                   :        0.004 s           0.004 s
  | Hartree multipole summation                :        0.241 s           0.242 s
  | Integration                                :        0.596 s           0.596 s
  | Solution of K.-S. eqns.                    :        0.035 s           0.035 s
  | Total energy evaluation                    :        0.000 s           0.000 s
------------------------------------------------------------

------------------------------------------------------------
          Begin self-consistency iteration #    2

  Date     :  20150727, Time     :  124915.525
------------------------------------------------------------
  Evaluating new KS density.
  Integration grid: deviation in total charge (<rho> - N_e) =   5.492495E-10
  Pulay mixing of updated and previous charge densities.

  Evaluating partitioned Hartree potential by multipole expansion.
  | Analytical far-field extrapolation by fixed multipoles:
  | Hartree multipole sum: apparent total charge =  -0.278793E-05
  Summing up the Hartree potential.
  Time summed over all CPUs for potential: real work        1.918 s, elapsed        1.924 s
  | RMS charge density error from multipole expansion :   0.596790E-02

  Integrating Hamiltonian matrix: batch-based integration.
  Time summed over all CPUs for integration: real work        4.698 s, elapsed        4.762 s

  Updating Kohn-Sham eigenvalues, eigenvectors, occupation numbers, and Fermi level.
  Solving generalized eigenproblem
  Updating Kohn-Sham eigenvalues and eigenfunctions.
  Solving real generalised eigenvalue problem by standard LAPACK (fast)
  Determining occupation numbers for Kohn-Sham eigenstates.
  | Chemical potential (Fermi level) in eV                 : -.22100582E+01
  | Error in electron count due to remaining E_F inaccuracy: 0.00000000E+00
  | Maximum occupation number of highest empty state:  0.00E+00

  Highest occupied state (VBM) at     -2.21005820 eV
  | Occupation number:      1.00000000

  Lowest unoccupied state (CBM) at    -2.21005820 eV
  | Occupation number:      1.00000000

  Overall HOMO-LUMO gap:      0.00000000 eV.

  Total energy components:
  | Sum of eigenvalues            :        -168.77987932 Ha       -4592.73419216 eV
  | XC energy correction          :         -37.40892190 Ha       -1017.94855748 eV
  | XC potential correction       :          47.82486145 Ha        1301.38069359 eV
  | Free-atom electrostatic energy:        -142.93295564 Ha       -3889.40361366 eV
  | Hartree energy correction     :          -5.40866954 Ha        -147.17738651 eV
  | van der Waals energy corr.    :           0.00000000 Ha           0.00000000 eV
  | Entropy correction            :          -0.00010367 Ha          -0.00282095 eV
  | ---------------------------
  | Total energy                  :        -306.70556495 Ha       -8345.88305621 eV
  | Total energy, T -> 0          :        -306.70566862 Ha       -8345.88587716 eV  <-- do not rely on this value for anything but (periodic) metals
  | Electronic free energy        :        -306.70577229 Ha       -8345.88869811 eV

  Derived energy quantities:
  | Kinetic energy                :         307.23176439 Ha        8360.20167135 eV
  | Electrostatic energy          :        -576.52840744 Ha      -15688.13617008 eV
  | Energy correction for multipole
  | error in Hartree potential    :           0.00045153 Ha           0.01228680 eV
  | Sum of eigenvalues per atom                           :        -353.28724555 eV
  | Total energy (T->0) per atom                          :        -641.99122132 eV  <-- do not rely on this value for anything but (periodic) metals
  | Electronic free energy per atom                       :        -641.99143832 eV

  Self-consistency convergence accuracy:
  | Change of charge density      : 0.4268E+00
  | Change of sum of eigenvalues  : 0.1039E+03 eV
  | Change of total energy        : 0.2998E+01 eV

  End self-consistency iteration #     2       :  max(cpu_time)    wall_clock(cpu1)
  | Time for this iteration                    :        1.319 s           1.319 s
  | Charge density update                      :        0.436 s           0.436 s
  | Density mixing                             :        0.005 s           0.005 s
  | Hartree multipole update                   :        0.004 s           0.004 s
  | Hartree multipole summation                :        0.241 s           0.241 s
  | Integration                                :        0.596 s           0.597 s
  | Solution of K.-S. eqns.                    :        0.036 s           0.035 s
  | Total energy evaluation                    :        0.000 s           0.000 s
------------------------------------------------------------

------------------------------------------------------------
          Begin self-consistency iteration #    3

  Date     :  20150727, Time     :  124916.844
------------------------------------------------------------
  Evaluating new KS density.
  Integration grid: deviation in total charge (<rho> - N_e) =   0.000000E+00
  Pulay mixing of updated and previous charge densities.

  Evaluating partitioned Hartree potential by multipole expansion.
  | Analytical far-field extrapolation by fixed multipoles:
  | Hartree multipole sum: apparent total charge =  -0.265551E-05
  Summing up the Hartree potential.
  Time summed over all CPUs for potential: real work        1.918 s, elapsed        1.923 s
  | RMS charge density error from multipole expansion :   0.118473E-01

  Integrating Hamiltonian matrix: batch-based integration.
  Time summed over all CPUs for integration: real work        4.701 s, elapsed        4.760 s

  Updating Kohn-Sham eigenvalues, eigenvectors, occupation numbers, and Fermi level.
  Solving generalized eigenproblem
  Updating Kohn-Sham eigenvalues and eigenfunctions.
  Solving real generalised eigenvalue problem by standard LAPACK (fast)
  Determining occupation numbers for Kohn-Sham eigenstates.
  | Chemical potential (Fermi level) in eV                 : -.21867718E+01
  | Error in electron count due to remaining E_F inaccuracy: -.91935419E-08
  | Maximum occupation number of highest empty state:  0.00E+00

  Highest occupied state (VBM) at     -6.74722698 eV
  | Occupation number:      2.00000000

  Lowest unoccupied state (CBM) at    -2.18677184 eV
  | Occupation number:      0.99999999

  Overall HOMO-LUMO gap:      4.56045514 eV.

  Total energy components:
  | Sum of eigenvalues            :        -169.01986025 Ha       -4599.26440537 eV
  | XC energy correction          :         -37.39608728 Ha       -1017.59930973 eV
  | XC potential correction       :          47.80172003 Ha        1300.75098348 eV
  | Free-atom electrostatic energy:        -142.93295564 Ha       -3889.40361366 eV
  | Hartree energy correction     :          -5.15570090 Ha        -140.29375959 eV
  | van der Waals energy corr.    :           0.00000000 Ha           0.00000000 eV
  | Entropy correction            :          -0.00010367 Ha          -0.00282095 eV
  | ---------------------------
  | Total energy                  :        -306.70288404 Ha       -8345.81010487 eV
  | Total energy, T -> 0          :        -306.70298771 Ha       -8345.81292582 eV  <-- do not rely on this value for anything but (periodic) metals
  | Electronic free energy        :        -306.70309138 Ha       -8345.81574677 eV

  Derived energy quantities:
  | Kinetic energy                :         305.88982591 Ha        8323.68566759 eV
  | Electrostatic energy          :        -575.19662268 Ha      -15651.89646273 eV
  | Energy correction for multipole
  | error in Hartree potential    :          -0.00214502 Ha          -0.05836888 eV
  | Sum of eigenvalues per atom                           :        -353.78956964 eV
  | Total energy (T->0) per atom                          :        -641.98560968 eV  <-- do not rely on this value for anything but (periodic) metals
  | Electronic free energy per atom                       :        -641.98582667 eV

  Self-consistency convergence accuracy:
  | Change of charge density      : 0.2116E+00
  | Change of sum of eigenvalues  : -.6530E+01 eV
  | Change of total energy        : 0.7295E-01 eV

  End self-consistency iteration #     3       :  max(cpu_time)    wall_clock(cpu1)
  | Time for this iteration                    :        1.317 s           1.317 s
  | Charge density update                      :        0.433 s           0.433 s
  | Density mixing                             :        0.006 s           0.006 s
  | Hartree multipole update                   :        0.004 s           0.004 s
  | Hartree multipole summation                :        0.241 s           0.241 s
  | Integration                                :        0.596 s           0.596 s
  | Solution of K.-S. eqns.                    :        0.036 s           0.036 s
  | Total energy evaluation                    :        0.000 s           0.000 s
------------------------------------------------------------

------------------------------------------------------------
          Begin self-consistency iteration #    4

  Date     :  20150727, Time     :  124918.161
------------------------------------------------------------
  Evaluating new KS density.
  Integration grid: deviation in total charge (<rho> - N_e) =  -9.193528E-09
  Pulay mixing of updated and previous charge densities.

  Evaluating partitioned Hartree potential by multipole expansion.
  | Analytical far-field extrapolation by fixed multipoles:
  | Hartree multipole sum: apparent total charge =  -0.307673E-05
  Summing up the Hartree potential.
  Time summed over all CPUs for potential: real work        1.917 s, elapsed        1.922 s
  | RMS charge density error from multipole expansion :   0.156519E-01

  Integrating Hamiltonian matrix: batch-based integration.
  Time summed over all CPUs for integration: real work        4.692 s, elapsed        4.745 s

  Updating Kohn-Sham eigenvalues, eigenvectors, occupation numbers, and Fermi level.
  Solving generalized eigenproblem
  Updating Kohn-Sham eigenvalues and eigenfunctions.
  Solving real generalised eigenvalue problem by standard LAPACK (fast)
  Determining occupation numbers for Kohn-Sham eigenstates.
  | Chemical potential (Fermi level) in eV                 : -.20927681E+01
  | Error in electron count due to remaining E_F inaccuracy: -.97557518E-11
  | Maximum occupation number of highest empty state:  0.00E+00

  Highest occupied state (VBM) at     -5.77912254 eV
  | Occupation number:      2.00000000

  Lowest unoccupied state (CBM) at    -2.09276809 eV
  | Occupation number:      1.00000000

  Overall HOMO-LUMO gap:      3.68635445 eV.

  Total energy components:
  | Sum of eigenvalues            :        -168.05368920 Ha       -4572.97355346 eV
  | XC energy correction          :         -37.52581534 Ha       -1021.12938991 eV
  | XC potential correction       :          47.96841036 Ha        1305.28685828 eV
  | Free-atom electrostatic energy:        -142.93295564 Ha       -3889.40361366 eV
  | Hartree energy correction     :          -6.15420670 Ha        -167.46448490 eV
  | van der Waals energy corr.    :           0.00000000 Ha           0.00000000 eV
  | Entropy correction            :          -0.00010367 Ha          -0.00282095 eV
  | ---------------------------
  | Total energy                  :        -306.69825652 Ha       -8345.68418364 eV
  | Total energy, T -> 0          :        -306.69836019 Ha       -8345.68700459 eV  <-- do not rely on this value for anything but (periodic) metals
  | Electronic free energy        :        -306.69846386 Ha       -8345.68982553 eV

  Derived energy quantities:
  | Kinetic energy                :         305.90803283 Ha        8324.18110299 eV
  | Electrostatic energy          :        -575.08047401 Ha      -15648.73589672 eV
  | Energy correction for multipole
  | error in Hartree potential    :          -0.00327293 Ha          -0.08906102 eV
  | Sum of eigenvalues per atom                           :        -351.76719642 eV
  | Total energy (T->0) per atom                          :        -641.97592343 eV  <-- do not rely on this value for anything but (periodic) metals
  | Electronic free energy per atom                       :        -641.97614043 eV

  Self-consistency convergence accuracy:
  | Change of charge density      : 0.1007E+00
  | Change of sum of eigenvalues  : 0.2629E+02 eV
  | Change of total energy        : 0.1259E+00 eV

  End self-consistency iteration #     4       :  max(cpu_time)    wall_clock(cpu1)
  | Time for this iteration                    :        1.315 s           1.314 s
  | Charge density update                      :        0.432 s           0.431 s
  | Density mixing                             :        0.007 s           0.006 s
  | Hartree multipole update                   :        0.005 s           0.004 s
  | Hartree multipole summation                :        0.241 s           0.241 s
  | Integration                                :        0.594 s           0.594 s
  | Solution of K.-S. eqns.                    :        0.036 s           0.036 s
  | Total energy evaluation                    :        0.000 s           0.000 s
------------------------------------------------------------

------------------------------------------------------------
          Begin self-consistency iteration #    5

  Date     :  20150727, Time     :  124919.475
------------------------------------------------------------
  Evaluating new KS density.
  Integration grid: deviation in total charge (<rho> - N_e) =  -9.762857E-12
  Pulay mixing of updated and previous charge densities.

  Evaluating partitioned Hartree potential by multipole expansion.
  | Analytical far-field extrapolation by fixed multipoles:
  | Hartree multipole sum: apparent total charge =  -0.297393E-05
  Summing up the Hartree potential.
  Time summed over all CPUs for potential: real work        1.917 s, elapsed        1.923 s
  | RMS charge density error from multipole expansion :   0.158012E-01

  Integrating Hamiltonian matrix: batch-based integration.
  Time summed over all CPUs for integration: real work        4.691 s, elapsed        4.736 s

  Updating Kohn-Sham eigenvalues, eigenvectors, occupation numbers, and Fermi level.
  Solving generalized eigenproblem
  Updating Kohn-Sham eigenvalues and eigenfunctions.
  Solving real generalised eigenvalue problem by standard LAPACK (fast)
  Determining occupation numbers for Kohn-Sham eigenstates.
  | Chemical potential (Fermi level) in eV                 : -.21149580E+01
  | Error in electron count due to remaining E_F inaccuracy: 0.25579538E-12
  | Maximum occupation number of highest empty state:  0.00E+00

  Highest occupied state (VBM) at     -2.11495798 eV
  | Occupation number:      1.00000000

  Lowest unoccupied state (CBM) at    -1.31840648 eV
  | Occupation number:      0.00000000

  Overall HOMO-LUMO gap:      0.79655150 eV.

  Total energy components:
  | Sum of eigenvalues            :        -168.12312119 Ha       -4574.86289417 eV
  | XC energy correction          :         -37.51871163 Ha       -1020.93608811 eV
  | XC potential correction       :          47.95876427 Ha        1305.02437470 eV
  | Free-atom electrostatic energy:        -142.93295564 Ha       -3889.40361366 eV
  | Hartree energy correction     :          -6.08204611 Ha        -165.50089523 eV
  | van der Waals energy corr.    :           0.00000000 Ha           0.00000000 eV
  | Entropy correction            :          -0.00010367 Ha          -0.00282095 eV
  | ---------------------------
  | Total energy                  :        -306.69807030 Ha       -8345.67911646 eV
  | Total energy, T -> 0          :        -306.69817397 Ha       -8345.68193740 eV  <-- do not rely on this value for anything but (periodic) metals
  | Electronic free energy        :        -306.69827764 Ha       -8345.68475835 eV

  Derived energy quantities:
  | Kinetic energy                :         305.88583058 Ha        8323.57694900 eV
  | Electrostatic energy          :        -575.06518925 Ha      -15648.31997735 eV
  | Energy correction for multipole
  | error in Hartree potential    :          -0.00336529 Ha          -0.09157411 eV
  | Sum of eigenvalues per atom                           :        -351.91253032 eV
  | Total energy (T->0) per atom                          :        -641.97553365 eV  <-- do not rely on this value for anything but (periodic) metals
  | Electronic free energy per atom                       :        -641.97575064 eV

  Self-consistency convergence accuracy:
  | Change of charge density      : 0.2109E-01
  | Change of sum of eigenvalues  : -.1889E+01 eV
  | Change of total energy        : 0.5067E-02 eV

  End self-consistency iteration #     5       :  max(cpu_time)    wall_clock(cpu1)
  | Time for this iteration                    :        1.316 s           1.316 s
  | Charge density update                      :        0.433 s           0.433 s
  | Density mixing                             :        0.008 s           0.008 s
  | Hartree multipole update                   :        0.004 s           0.004 s
  | Hartree multipole summation                :        0.241 s           0.241 s
  | Integration                                :        0.594 s           0.593 s
  | Solution of K.-S. eqns.                    :        0.036 s           0.036 s
  | Total energy evaluation                    :        0.000 s           0.000 s
------------------------------------------------------------

------------------------------------------------------------
          Begin self-consistency iteration #    6

  Date     :  20150727, Time     :  124920.791
------------------------------------------------------------
  Evaluating new KS density.
  Integration grid: deviation in total charge (<rho> - N_e) =   2.700062E-13
  Pulay mixing of updated and previous charge densities.

  Evaluating partitioned Hartree potential by multipole expansion.
  | Analytical far-field extrapolation by fixed multipoles:
  | Hartree multipole sum: apparent total charge =  -0.295548E-05
  Summing up the Hartree potential.
  Time summed over all CPUs for potential: real work        1.917 s, elapsed        1.922 s
  | RMS charge density error from multipole expansion :   0.160438E-01

  Integrating Hamiltonian matrix: batch-based integration.
  Time summed over all CPUs for integration: real work        4.691 s, elapsed        4.744 s

  Updating Kohn-Sham eigenvalues, eigenvectors, occupation numbers, and Fermi level.
  Solving generalized eigenproblem
  Updating Kohn-Sham eigenvalues and eigenfunctions.
  Solving real generalised eigenvalue problem by standard LAPACK (fast)
  Determining occupation numbers for Kohn-Sham eigenstates.
  | Chemical potential (Fermi level) in eV                 : -.21174831E+01
  | Error in electron count due to remaining E_F inaccuracy: -.42632564E-13
  | Maximum occupation number of highest empty state:  0.00E+00

  Highest occupied state (VBM) at     -5.78487845 eV
  | Occupation number:      2.00000000

  Lowest unoccupied state (CBM) at    -2.11748305 eV
  | Occupation number:      1.00000000

  Overall HOMO-LUMO gap:      3.66739540 eV.

  Total energy components:
  | Sum of eigenvalues            :        -168.12356924 Ha       -4574.87508604 eV
  | XC energy correction          :         -37.52033547 Ha       -1020.98027497 eV
  | XC potential correction       :          47.96057541 Ha        1305.07365832 eV
  | Free-atom electrostatic energy:        -142.93295564 Ha       -3889.40361366 eV
  | Hartree energy correction     :          -6.08179877 Ha        -165.49416489 eV
  | van der Waals energy corr.    :           0.00000000 Ha           0.00000000 eV
  | Entropy correction            :          -0.00010367 Ha          -0.00282095 eV
  | ---------------------------
  | Total energy                  :        -306.69808371 Ha       -8345.67948123 eV
  | Total energy, T -> 0          :        -306.69818738 Ha       -8345.68230218 eV  <-- do not rely on this value for anything but (periodic) metals
  | Electronic free energy        :        -306.69829105 Ha       -8345.68512313 eV

  Derived energy quantities:
  | Kinetic energy                :         305.88476440 Ha        8323.54793676 eV
  | Electrostatic energy          :        -575.06251264 Ha      -15648.24714302 eV
  | Energy correction for multipole
  | error in Hartree potential    :          -0.00344565 Ha          -0.09376081 eV
  | Sum of eigenvalues per atom                           :        -351.91346816 eV
  | Total energy (T->0) per atom                          :        -641.97556171 eV  <-- do not rely on this value for anything but (periodic) metals
  | Electronic free energy per atom                       :        -641.97577870 eV

  Self-consistency convergence accuracy:
  | Change of charge density      : 0.9127E-02
  | Change of sum of eigenvalues  : -.1219E-01 eV
  | Change of total energy        : -.3648E-03 eV

  End self-consistency iteration #     6       :  max(cpu_time)    wall_clock(cpu1)
  | Time for this iteration                    :        1.318 s           1.318 s
  | Charge density update                      :        0.433 s           0.433 s
  | Density mixing                             :        0.010 s           0.010 s
  | Hartree multipole update                   :        0.004 s           0.004 s
  | Hartree multipole summation                :        0.241 s           0.241 s
  | Integration                                :        0.594 s           0.594 s
  | Solution of K.-S. eqns.                    :        0.036 s           0.036 s
  | Total energy evaluation                    :        0.000 s           0.000 s
------------------------------------------------------------

------------------------------------------------------------
          Begin self-consistency iteration #    7

  Date     :  20150727, Time     :  124922.109
------------------------------------------------------------
  Evaluating new KS density.
  Integration grid: deviation in total charge (<rho> - N_e) =  -2.842171E-14
  Pulay mixing of updated and previous charge densities.

  Evaluating partitioned Hartree potential by multipole expansion.
  | Analytical far-field extrapolation by fixed multipoles:
  | Hartree multipole sum: apparent total charge =  -0.291880E-05
  Summing up the Hartree potential.
  Time summed over all CPUs for potential: real work        1.917 s, elapsed        1.923 s
  | RMS charge density error from multipole expansion :   0.161275E-01

  Integrating Hamiltonian matrix: batch-based integration.
  Time summed over all CPUs for integration: real work        4.693 s, elapsed        4.746 s

  Updating Kohn-Sham eigenvalues, eigenvectors, occupation numbers, and Fermi level.
  Solving generalized eigenproblem
  Updating Kohn-Sham eigenvalues and eigenfunctions.
  Solving real generalised eigenvalue problem by standard LAPACK (fast)
  Determining occupation numbers for Kohn-Sham eigenstates.
  | Chemical potential (Fermi level) in eV                 : -.21192734E+01
  | Error in electron count due to remaining E_F inaccuracy: 0.00000000E+00
  | Maximum occupation number of highest empty state:  0.00E+00

  Highest occupied state (VBM) at     -2.11927338 eV
  | Occupation number:      1.00000000

  Lowest unoccupied state (CBM) at    -2.11927338 eV
  | Occupation number:      1.00000000

  Overall HOMO-LUMO gap:      0.00000000 eV.

  Total energy components:
  | Sum of eigenvalues            :        -168.15029927 Ha       -4575.60244728 eV
  | XC energy correction          :         -37.51825246 Ha       -1020.92359349 eV
  | XC potential correction       :          47.95763866 Ha        1304.99374541 eV
  | Free-atom electrostatic energy:        -142.93295564 Ha       -3889.40361366 eV
  | Hartree energy correction     :          -6.05419408 Ha        -164.74300308 eV
  | van der Waals energy corr.    :           0.00000000 Ha           0.00000000 eV
  | Entropy correction            :          -0.00010367 Ha          -0.00282095 eV
  | ---------------------------
  | Total energy                  :        -306.69806279 Ha       -8345.67891210 eV
  | Total energy, T -> 0          :        -306.69816646 Ha       -8345.68173305 eV  <-- do not rely on this value for anything but (periodic) metals
  | Electronic free energy        :        -306.69827013 Ha       -8345.68455399 eV

  Derived energy quantities:
  | Kinetic energy                :         305.91069535 Ha        8324.25355390 eV
  | Electrostatic energy          :        -575.09050569 Ha      -15649.00887251 eV
  | Energy correction for multipole
  | error in Hartree potential    :          -0.00345635 Ha          -0.09405203 eV
  | Sum of eigenvalues per atom                           :        -351.96941902 eV
  | Total energy (T->0) per atom                          :        -641.97551793 eV  <-- do not rely on this value for anything but (periodic) metals
  | Electronic free energy per atom                       :        -641.97573492 eV

  Self-consistency convergence accuracy:
  | Change of charge density      : 0.6237E-02
  | Change of sum of eigenvalues  : -.7274E+00 eV
  | Change of total energy        : 0.5691E-03 eV

  End self-consistency iteration #     7       :  max(cpu_time)    wall_clock(cpu1)
  | Time for this iteration                    :        1.320 s           1.320 s
  | Charge density update                      :        0.433 s           0.434 s
  | Density mixing                             :        0.011 s           0.011 s
  | Hartree multipole update                   :        0.004 s           0.004 s
  | Hartree multipole summation                :        0.241 s           0.241 s
  | Integration                                :        0.595 s           0.594 s
  | Solution of K.-S. eqns.                    :        0.035 s           0.036 s
  | Total energy evaluation                    :        0.000 s           0.000 s
------------------------------------------------------------

------------------------------------------------------------
          Begin self-consistency iteration #    8

  Date     :  20150727, Time     :  124923.430
------------------------------------------------------------
  Evaluating new KS density.
  Integration grid: deviation in total charge (<rho> - N_e) =   7.105427E-15
  Pulay mixing of updated and previous charge densities.

  Evaluating partitioned Hartree potential by multipole expansion.
  | Analytical far-field extrapolation by fixed multipoles:
  | Hartree multipole sum: apparent total charge =  -0.283824E-05
  Summing up the Hartree potential.
  Time summed over all CPUs for potential: real work        1.917 s, elapsed        1.923 s
  | RMS charge density error from multipole expansion :   0.160985E-01

  Integrating Hamiltonian matrix: batch-based integration.
  Time summed over all CPUs for integration: real work        4.685 s, elapsed        4.738 s

  Updating Kohn-Sham eigenvalues, eigenvectors, occupation numbers, and Fermi level.
  Solving generalized eigenproblem
  Updating Kohn-Sham eigenvalues and eigenfunctions.
  Solving real generalised eigenvalue problem by standard LAPACK (fast)
  Determining occupation numbers for Kohn-Sham eigenstates.
  | Chemical potential (Fermi level) in eV                 : -.21256875E+01
  | Error in electron count due to remaining E_F inaccuracy: 0.00000000E+00
  | Maximum occupation number of highest empty state:  0.00E+00

  Highest occupied state (VBM) at     -2.12568747 eV
  | Occupation number:      1.00000000

  Lowest unoccupied state (CBM) at    -2.12568747 eV
  | Occupation number:      1.00000000

  Overall HOMO-LUMO gap:      0.00000000 eV.

  Total energy components:
  | Sum of eigenvalues            :        -168.18859645 Ha       -4576.64456660 eV
  | XC energy correction          :         -37.51421443 Ha       -1020.81371301 eV
  | XC potential correction       :          47.95228304 Ha        1304.84801133 eV
  | Free-atom electrostatic energy:        -142.93295564 Ha       -3889.40361366 eV
  | Hartree energy correction     :          -6.01456903 Ha        -163.66475052 eV
  | van der Waals energy corr.    :           0.00000000 Ha           0.00000000 eV
  | Entropy correction            :          -0.00010367 Ha          -0.00282095 eV
  | ---------------------------
  | Total energy                  :        -306.69805252 Ha       -8345.67863246 eV
  | Total energy, T -> 0          :        -306.69815619 Ha       -8345.68145341 eV  <-- do not rely on this value for anything but (periodic) metals
  | Electronic free energy        :        -306.69825985 Ha       -8345.68427436 eV

  Derived energy quantities:
  | Kinetic energy                :         305.92767998 Ha        8324.71572919 eV
  | Electrostatic energy          :        -575.11151807 Ha      -15649.58064864 eV
  | Energy correction for multipole
  | error in Hartree potential    :          -0.00345077 Ha          -0.09390033 eV
  | Sum of eigenvalues per atom                           :        -352.04958205 eV
  | Total energy (T->0) per atom                          :        -641.97549642 eV  <-- do not rely on this value for anything but (periodic) metals
  | Electronic free energy per atom                       :        -641.97571341 eV

  Self-consistency convergence accuracy:
  | Change of charge density      : 0.3392E-02
  | Change of sum of eigenvalues  : -.1042E+01 eV
  | Change of total energy        : 0.2796E-03 eV

  End self-consistency iteration #     8       :  max(cpu_time)    wall_clock(cpu1)
  | Time for this iteration                    :        1.320 s           1.319 s
  | Charge density update                      :        0.433 s           0.433 s
  | Density mixing                             :        0.012 s           0.011 s
  | Hartree multipole update                   :        0.004 s           0.004 s
  | Hartree multipole summation                :        0.241 s           0.242 s
  | Integration                                :        0.593 s           0.593 s
  | Solution of K.-S. eqns.                    :        0.036 s           0.036 s
  | Total energy evaluation                    :        0.001 s           0.000 s
------------------------------------------------------------

------------------------------------------------------------
          Begin self-consistency iteration #    9

  Date     :  20150727, Time     :  124924.749
------------------------------------------------------------
  Evaluating new KS density.
  Integration grid: deviation in total charge (<rho> - N_e) =  -2.131628E-14
  Pulay mixing of updated and previous charge densities.

  Evaluating partitioned Hartree potential by multipole expansion.
  | Analytical far-field extrapolation by fixed multipoles:
  | Hartree multipole sum: apparent total charge =  -0.283230E-05
  Summing up the Hartree potential.
  Time summed over all CPUs for potential: real work        1.917 s, elapsed        1.922 s
  | RMS charge density error from multipole expansion :   0.161073E-01

  Integrating Hamiltonian matrix: batch-based integration.
  Time summed over all CPUs for integration: real work        4.688 s, elapsed        4.737 s

  Updating Kohn-Sham eigenvalues, eigenvectors, occupation numbers, and Fermi level.
  Solving generalized eigenproblem
  Updating Kohn-Sham eigenvalues and eigenfunctions.
  Solving real generalised eigenvalue problem by standard LAPACK (fast)
  Determining occupation numbers for Kohn-Sham eigenstates.
  | Chemical potential (Fermi level) in eV                 : -.21268307E+01
  | Error in electron count due to remaining E_F inaccuracy: 0.00000000E+00
  | Maximum occupation number of highest empty state:  0.00E+00

  Highest occupied state (VBM) at     -2.12683071 eV
  | Occupation number:      1.00000000

  Lowest unoccupied state (CBM) at    -2.12683071 eV
  | Occupation number:      1.00000000

  Overall HOMO-LUMO gap:      0.00000000 eV.

  Total energy components:
  | Sum of eigenvalues            :        -168.18386179 Ha       -4576.51572978 eV
  | XC energy correction          :         -37.51492041 Ha       -1020.83292389 eV
  | XC potential correction       :          47.95320569 Ha        1304.87311801 eV
  | Free-atom electrostatic energy:        -142.93295564 Ha       -3889.40361366 eV
  | Hartree energy correction     :          -6.01951989 Ha        -163.79947012 eV
  | van der Waals energy corr.    :           0.00000000 Ha           0.00000000 eV
  | Entropy correction            :          -0.00010367 Ha          -0.00282095 eV
  | ---------------------------
  | Total energy                  :        -306.69805204 Ha       -8345.67861944 eV
  | Total energy, T -> 0          :        -306.69815571 Ha       -8345.68144039 eV  <-- do not rely on this value for anything but (periodic) metals
  | Electronic free energy        :        -306.69825938 Ha       -8345.68426134 eV

  Derived energy quantities:
  | Kinetic energy                :         305.93103688 Ha        8324.80707514 eV
  | Electrostatic energy          :        -575.11416851 Ha      -15649.65277069 eV
  | Energy correction for multipole
  | error in Hartree potential    :          -0.00346168 Ha          -0.09419702 eV
  | Sum of eigenvalues per atom                           :        -352.03967152 eV
  | Total energy (T->0) per atom                          :        -641.97549541 eV  <-- do not rely on this value for anything but (periodic) metals
  | Electronic free energy per atom                       :        -641.97571241 eV

  Self-consistency convergence accuracy:
  | Change of charge density      : 0.9887E-03
  | Change of sum of eigenvalues  : 0.1288E+00 eV
  | Change of total energy        : 0.1302E-04 eV

  End self-consistency iteration #     9       :  max(cpu_time)    wall_clock(cpu1)
  | Time for this iteration                    :        1.321 s           1.321 s
  | Charge density update                      :        0.434 s           0.434 s
  | Density mixing                             :        0.012 s           0.013 s
  | Hartree multipole update                   :        0.005 s           0.004 s
  | Hartree multipole summation                :        0.241 s           0.241 s
  | Integration                                :        0.593 s           0.593 s
  | Solution of K.-S. eqns.                    :        0.036 s           0.036 s
  | Total energy evaluation                    :        0.000 s           0.000 s
------------------------------------------------------------

------------------------------------------------------------
          Begin self-consistency iteration #   10

  Date     :  20150727, Time     :  124926.071
------------------------------------------------------------
  Evaluating new KS density.
  Integration grid: deviation in total charge (<rho> - N_e) =   2.842171E-14
[...]
  | Electronic free energy        :        -306.69995351 Ha       -8345.73036096 eV

  Derived energy quantities:
  | Kinetic energy                :         305.93119954 Ha        8324.81150121 eV
  | Electrostatic energy          :        -575.11451649 Ha      -15649.66223985 eV
  | Energy correction for multipole
  | error in Hartree potential    :          -0.00347840 Ha          -0.09465212 eV
  | Sum of eigenvalues per atom                           :        -352.04430398 eV
  | Total energy (T->0) per atom                          :        -641.97904154 eV  <-- do not rely on this value for anything but (periodic) metals
  | Electronic free energy per atom                       :        -641.97925854 eV

  atomic forces [eV/Ang]:
  -----------------------
  atom #    1
   Hellmann-Feynman + Multipole  : -.209964E+01 -.786938E+01 -.738427E+01
   Pulay + GGA                   : 0.192860E+01 0.849192E+01 0.733240E+01
   Van der Waals               : 0.263424E-02 -.377428E-02 0.643991E-02
   ----------------------------------------------------------------
   Total forces(   1)            : -.168399E+00 0.618762E+00 -.454241E-01
  atom #    2
   Hellmann-Feynman + Multipole  : 0.721434E-02 -.263359E+00 0.596566E-01
   Pulay + GGA                   : -.256737E-01 0.592196E-01 -.341961E-01
   Van der Waals               : -.137337E-03 0.211045E-02 0.364543E-02
   ----------------------------------------------------------------
   Total forces(   2)            : -.185967E-01 -.202029E+00 0.291060E-01
  atom #    3
   Hellmann-Feynman + Multipole  : -.260029E+00 -.159418E+00 0.891477E-01
   Pulay + GGA                   : 0.165088E+00 0.460951E-01 -.191714E-01
   Van der Waals               : 0.273584E-02 -.188935E-02 0.504445E-02
   ----------------------------------------------------------------
   Total forces(   3)            : -.922048E-01 -.115212E+00 0.750207E-01
  atom #    4
   Hellmann-Feynman + Multipole  : 0.188921E+00 0.672741E-01 -.214500E+00
   Pulay + GGA                   : -.637538E-01 -.503123E-01 0.123783E+00
   Van der Waals               : 0.358621E-03 -.872500E-03 0.365919E-02
   ----------------------------------------------------------------
   Total forces(   4)            : 0.125525E+00 0.160894E-01 -.870579E-01
  atom #    5
   Hellmann-Feynman + Multipole  : -.643879E+01 -.676612E+01 0.919153E+01
   Pulay + GGA                   : 0.688478E+01 0.591314E+01 -.611935E+01
   Van der Waals               : -.282140E-02 0.677560E-02 0.327798E-02
   ----------------------------------------------------------------
   Total forces(   5)            : 0.443171E+00 -.846209E+00 0.307545E+01
  atom #    6
   Hellmann-Feynman + Multipole  : -.178236E-01 0.229855E-01 -.585637E-01
   Pulay + GGA                   : 0.803359E-01 0.129890E+00 0.477261E-01
   Van der Waals               : -.176289E-02 0.587789E-02 0.312830E-03
   ----------------------------------------------------------------
   Total forces(   6)            : 0.607493E-01 0.158753E+00 -.105248E-01
  atom #    7
   Hellmann-Feynman + Multipole  : -.314042E+00 0.420698E+00 -.281231E+01
   Pulay + GGA                   : -.312734E-01 0.226314E-01 -.137745E+00
   Van der Waals               : -.232891E-02 0.349899E-02 -.285605E-04
   ----------------------------------------------------------------
   Total forces(   7)            : -.347645E+00 0.446828E+00 -.295008E+01
  atom #    8
   Hellmann-Feynman + Multipole  : 0.625944E+01 -.690888E+01 -.101465E+02
   Pulay + GGA                   : -.678736E+01 0.755354E+01 0.121099E+02
   Van der Waals               : 0.178908E-02 -.473892E-02 -.506039E-02
   ----------------------------------------------------------------
   Total forces(   8)            : -.526131E+00 0.639927E+00 0.195827E+01
  atom #    9
   Hellmann-Feynman + Multipole  : -.356204E+00 0.214896E+00 -.233257E+01
   Pulay + GGA                   : 0.122638E-01 0.575748E-02 0.135213E+00
   Van der Waals               : -.661749E-03 0.395557E-03 -.221698E-02
   ----------------------------------------------------------------
   Total forces(   9)            : -.344601E+00 0.221049E+00 -.219958E+01
  atom #   10
   Hellmann-Feynman + Multipole  : 0.136273E+01 -.143573E+01 0.432069E+00
   Pulay + GGA                   : -.523884E-01 0.680793E-01 0.194207E-02
   Van der Waals               : 0.474776E-03 -.279683E-02 -.521944E-02
   ----------------------------------------------------------------
   Total forces(  10)            : 0.131082E+01 -.137045E+01 0.428792E+00
  atom #   11
   Hellmann-Feynman + Multipole  : -.129885E+01 -.131618E+02 -.235503E+00
   Pulay + GGA                   : 0.203830E+01 0.135501E+02 -.161212E+01
   Van der Waals               : -.734011E-03 -.164353E-02 -.591055E-02
   ----------------------------------------------------------------
   Total forces(  11)            : 0.738713E+00 0.386712E+00 -.185353E+01
  atom #   12
   Hellmann-Feynman + Multipole  : -.321798E+00 0.622785E+00 0.352807E+00
   Pulay + GGA                   : -.854920E-01 0.906381E-01 0.757852E-01
   Van der Waals               : 0.975913E-03 -.133947E-02 -.965588E-03
   ----------------------------------------------------------------
   Total forces(  12)            : -.406314E+00 0.712084E+00 0.427627E+00
  atom #   13
   Hellmann-Feynman + Multipole  : -.820098E+00 -.740977E+00 0.128895E+01
   Pulay + GGA                   : 0.558539E-01 0.792360E-01 -.127800E+00
   Van der Waals               : -.522165E-03 -.160360E-02 -.297828E-02
   ----------------------------------------------------------------
   Total forces(  13)            : -.764766E+00 -.663345E+00 0.115818E+01
  Timings for vdw_correction_hirshfeld (Tkatchenko-Scheffler 2009):
  | CPU time:        3.569 s, Wall clock time:        3.569 s.
  Removing unitary transformations (pure translations, rotations) from forces on atoms.
  Atomic forces before filtering:
  | Net force on center of mass :  0.103201E-01 0.295845E-02 0.624724E-02 eV/A
  | Net torque on center of mass:  -.209643E-01 -.701658E-02 0.857818E-02 eV
  Atomic forces after filtering:
  | Net force on center of mass :  -.356812E-15 -.178406E-15 0.178406E-15 eV/A
  | Net torque on center of mass:  -.207699E-14 -.132172E-14 0.188817E-15 eV
 
  Energy and forces in a compact form:
  | Total energy uncorrected      :         -0.834572471906827E+04 eV
  | Total energy corrected        :         -0.834572754001619E+04 eV  <-- do not rely on this value for anything but (periodic) metals
  | Electronic free energy        :         -0.834573036096411E+04 eV
  Total atomic forces (unitary forces cleaned) [eV/Ang]:
  |   1         -0.169675425783129E+00          0.618756544379846E+00         -0.464458860901145E-01
  |   2         -0.196747400078570E-01         -0.201820300643427E+00          0.283237325973798E-01
  |   3         -0.934214051013977E-01         -0.115450060822138E+00          0.740546017245076E-01
  |   4          0.124235360125950E+00          0.159103074077011E-01         -0.881049437023785E-01
  |   5          0.442359742603454E+00         -0.845731963789630E+00          0.307499313106332E+01
  |   6          0.601204692165015E-01          0.159035740206901E+00         -0.107876049075458E-01
  |   7         -0.348436537917896E+00          0.447568144303076E+00         -0.295050598420168E+01
  |   8         -0.526922896038731E+00          0.638917547369828E+00          0.195774857428160E+01
  |   9         -0.345395379980148E+00          0.219750837837603E+00         -0.220011920687252E+01
  |  10          0.131018608857403E+01         -0.137126274611821E+01          0.428464765407393E+00
  |  11          0.738292134381974E+00          0.386312598276301E+00         -0.185359527101496E+01
  |  12         -0.406575661935805E+00          0.711665759494223E+00          0.427746365037474E+00
  |  13         -0.765091748136945E+00         -0.663652407902071E+00          0.115822772667753E+01
 
  ------------------------------------ 
  Start decomposition of the XC Energy 
  ------------------------------------ 
  Hartree-Fock part   :          0.000000000 Ha              0.000000000 eV
  ------------------------------------ 
  X Energy            :        -36.188034645 Ha           -984.726525030 eV
  C Energy GGA        :         -1.326700878 Ha            -36.101367709 eV
  Total XC Energy     :        -37.514735523 Ha          -1020.827892739 eV
  LDA X and C from self-consistent density 
  X Energy LDA        :        -32.610570861 Ha           -887.378782459 eV
  C Energy LDA        :         -2.676030785 Ha            -72.818502629 eV
  ------------------------------------ 
  End decomposition of the XC Energy 
  ------------------------------------ 
  Performing Hirshfeld analysis of fragment charges and moments.
  ----------------------------------------------------------------------
  | Atom     1: O
  |   Hirshfeld charge        :     -0.12077507
  |   Free atom volume        :     23.95238533
  |   Hirshfeld volume        :     22.79991995
  |   Hirshfeld dipole vector :     -0.00770114       0.03205239       0.02585127
  |   Hirshfeld dipole moment :      0.04189214
  |   Hirshfeld second moments:      0.06294272      -0.00787655      -0.00900512
  |                                 -0.00787655       0.01556305      -0.02853088
  |                                 -0.00900512      -0.02853088       0.04873821
  ----------------------------------------------------------------------
  | Atom     2: H
  |   Hirshfeld charge        :      0.10123051
  |   Free atom volume        :     10.44207651
  |   Hirshfeld volume        :     10.82876537
  |   Hirshfeld dipole vector :     -0.01497327       0.00778835       0.00519087
  |   Hirshfeld dipole moment :      0.01765793
  |   Hirshfeld second moments:      0.01631839       0.00482094       0.00215845
  |                                  0.00482094       0.00979954       0.00527505
  |                                  0.00215845       0.00527505       0.04099218
  ----------------------------------------------------------------------
  | Atom     3: H
  |   Hirshfeld charge        :      0.07813078
  |   Free atom volume        :     10.44207651
  |   Hirshfeld volume        :     14.64920075
  |   Hirshfeld dipole vector :     -0.01135837      -0.00251073       0.00749238
  |   Hirshfeld dipole moment :      0.01383662
  |   Hirshfeld second moments:     -0.06209842      -0.02521034      -0.00527622
  |                                 -0.02521034      -0.04685246      -0.00300336
  |                                 -0.00527622      -0.00300336      -0.02413800
  ----------------------------------------------------------------------
  | Atom     4: H
  |   Hirshfeld charge        :      0.13455106
  |   Free atom volume        :     10.44207651
  |   Hirshfeld volume        :     11.15012551
  |   Hirshfeld dipole vector :     -0.02915976       0.00501192       0.04894384
  |   Hirshfeld dipole moment :      0.05719187
  |   Hirshfeld second moments:      0.03169724      -0.00105421      -0.00258021
  |                                 -0.00105421       0.02928925      -0.00018889
  |                                 -0.00258021      -0.00018889       0.01991827
  ----------------------------------------------------------------------
  | Atom     5: O
  |   Hirshfeld charge        :     -0.21628549
  |   Free atom volume        :     23.95238533
  |   Hirshfeld volume        :     23.02432217
  |   Hirshfeld dipole vector :      0.02581251      -0.00416011      -0.01788423
  |   Hirshfeld dipole moment :      0.03167709
  |   Hirshfeld second moments:     -0.02653103       0.00138454       0.03836592
  |                                  0.00138454       0.04159767       0.00484731
  |                                  0.03836592       0.00484731       0.05271973
  ----------------------------------------------------------------------
  | Atom     6: H
  |   Hirshfeld charge        :      0.07447093
  |   Free atom volume        :     10.44207651
  |   Hirshfeld volume        :     12.90365161
  |   Hirshfeld dipole vector :     -0.00309788       0.01511616       0.03033010
  |   Hirshfeld dipole moment :      0.03402954
  |   Hirshfeld second moments:     -0.06181567      -0.01741857       0.00879254
  |                                 -0.01741857      -0.01719318       0.00525791
  |                                  0.00879254       0.00525791       0.03497514
  ----------------------------------------------------------------------
  | Atom     7: H
  |   Hirshfeld charge        :      0.10436580
  |   Free atom volume        :     10.44207651
  |   Hirshfeld volume        :     12.08845807
  |   Hirshfeld dipole vector :     -0.02064372      -0.00219389      -0.06415208
  |   Hirshfeld dipole moment :      0.06742749
  |   Hirshfeld second moments:     -0.00677764       0.00290585       0.02217343
  |                                  0.00290585       0.02422508       0.00471177
  |                                  0.02217343       0.00471177       0.01916290
  ----------------------------------------------------------------------
  | Atom     8: O
  |   Hirshfeld charge        :     -0.36611500
  |   Free atom volume        :     23.95238533
  |   Hirshfeld volume        :     24.64446585
  |   Hirshfeld dipole vector :     -0.04399542       0.04294911       0.05787849
  |   Hirshfeld dipole moment :      0.08444017
  |   Hirshfeld second moments:     -0.07694441      -0.04102743       0.04108756
  |                                 -0.04102743      -0.07410218      -0.02312795
  |                                  0.04108756      -0.02312795      -0.01112847
  ----------------------------------------------------------------------
  | Atom     9: H
  |   Hirshfeld charge        :      0.11064189
  |   Free atom volume        :     10.44207651
  |   Hirshfeld volume        :      7.96982813
  |   Hirshfeld dipole vector :      0.01401184      -0.00661510       0.12191517
  |   Hirshfeld dipole moment :      0.12289589
  |   Hirshfeld second moments:      0.08121015      -0.01758902       0.01086626
  |                                 -0.01758902       0.07614391      -0.00876897
  |                                  0.01086626      -0.00876897       0.07808623
  ----------------------------------------------------------------------
  | Atom    10: H
  |   Hirshfeld charge        :      0.06109768
  |   Free atom volume        :     10.44207651
  |   Hirshfeld volume        :      9.36632733
  |   Hirshfeld dipole vector :     -0.03706659       0.03632004       0.01253582
  |   Hirshfeld dipole moment :      0.05338749
  |   Hirshfeld second moments:      0.01735524       0.01200370      -0.00676011
  |                                  0.01200370       0.02455179       0.00641132
  |                                 -0.00676011       0.00641132       0.07094012
  ----------------------------------------------------------------------
  | Atom    11: O
  |   Hirshfeld charge        :     -0.21766752
  |   Free atom volume        :     23.95238533
  |   Hirshfeld volume        :     21.69501931
  |   Hirshfeld dipole vector :      0.02746008       0.01879618       0.02707543
  |   Hirshfeld dipole moment :      0.04290025
  |   Hirshfeld second moments:      0.02847355      -0.02779844      -0.04269726
  |                                 -0.02779844       0.03979675      -0.00889092
  |                                 -0.04269726      -0.00889092       0.05634851
  ----------------------------------------------------------------------
  | Atom    12: H
  |   Hirshfeld charge        :      0.14413423
  |   Free atom volume        :     10.44207651
  |   Hirshfeld volume        :      7.53698147
  |   Hirshfeld dipole vector :     -0.05304621       0.07070288       0.06865230
  |   Hirshfeld dipole moment :      0.11191933
  |   Hirshfeld second moments:      0.09536077      -0.00515433      -0.01468422
  |                                 -0.00515433       0.09272977      -0.00922867
  |                                 -0.01468422      -0.00922867       0.09873328
  ----------------------------------------------------------------------
  | Atom    13: H
  |   Hirshfeld charge        :      0.11215409
  |   Free atom volume        :     10.44207651
  |   Hirshfeld volume        :     10.07592074
  |   Hirshfeld dipole vector :      0.03590298       0.02939624      -0.03359078
  |   Hirshfeld dipole moment :      0.05728440
  |   Hirshfeld second moments:      0.03173045      -0.01513858       0.00082615
  |                                 -0.01513858       0.05689416       0.02206442
  |                                  0.00082615       0.02206442       0.03717891
  ----------------------------------------------------------------------


------------------------------------------------------------------------------
  Final output of selected total energy values:

  The following output summarizes some interesting total energy values
  at the end of a run (AFTER all relaxation, molecular dynamics, etc.).

  | Total energy of the DFT / Hartree-Fock s.c.f. calculation      :          -8345.724719068 eV
  | Final zero-broadening corrected energy (caution - metals only) :          -8345.727540016 eV
  | For reference only, the value of 1 Hartree used in FHI-aims is :             27.211384500 eV

  Before relying on these values, please be sure to understand exactly which
  total energy value is referred to by a given number. Different objects may
  all carry the same name 'total energy'. Definitions:

  Total energy of the DFT / Hartree-Fock s.c.f. calculation:
  | Note that this energy does not include ANY quantities calculated after the
  | s.c.f. cycle, in particular not ANY RPA, MP2, etc. many-body perturbation terms.

  Final zero-broadening corrected energy:
  | For metallic systems only, a broadening of the occupation numbers at the Fermi
  | level can be extrapolated back to zero broadening by an electron-gas inspired
  | formula. For all systems that are not real metals, this value can be
  | meaningless and should be avoided.

------------------------------------------------------------------------------

------------------------------------------------------------
          Leaving FHI-aims.
          Date     :  20150727, Time     :  124938.089

          Computational steps:
          | Number of self-consistency cycles          :           16

          Detailed time accounting                     :  max(cpu_time)    wall_clock(cpu1)
          | Total time                                 :       25.829 s          25.847 s
          | Preparation time                           :        0.171 s           0.588 s
          | Grid partitioning                          :        0.120 s           0.120 s
          | Preloading free-atom quantities on grid    :        0.014 s           0.013 s
          | Free-atom superposition energy             :        0.052 s           0.052 s
          | Total time for integrations                :       10.424 s          10.425 s
          | Total time for solution of K.-S. equations :        0.708 s           0.709 s
          | Total time for density & force components  :        8.786 s           8.786 s
          | Total time for mixing                      :        0.176 s           0.175 s
          | Total time for Hartree multipole update    :        0.068 s           0.067 s
          | Total time for Hartree multipole sum       :        4.655 s           4.658 s
          | Total time for total energy evaluation     :        0.002 s           0.002 s
          | Total time for scaled ZORA corrections     :        0.000 s           0.000 s
          | Total time for TS (2009) vdW correction    :        0.039 s           0.040 s

          Have a nice day.
------------------------------------------------------------
